atom_style full

#-----------------------------------BUCKINGHAM---------------------------------------
pair_style buck/long/coul/long cut long 11.0
bond_style harmonic
angle_style harmonic
dihedral_style none
improper_style harmonic

kspace_style pppm 0.0001
pair_modify shift yes
read_data data_buck.data
Reading data file ...
  orthogonal box = (-13.5 -13.5 -13.5) to (13.5 13.5 13.5)
  1 by 1 by 2 MPI processor grid
  reading atoms ...
  1050 atoms
  reading velocities ...
  1050 velocities
  scanning bonds ...
  3 = max bonds/atom
  scanning angles ...
  3 = max angles/atom
  scanning impropers ...
  1 = max impropers/atom
  orthogonal box = (-13.5 -13.5 -13.5) to (13.5 13.5 13.5)
  1 by 1 by 2 MPI processor grid
  reading bonds ...
  630 bonds
  reading angles ...
  630 angles
  reading impropers ...
  210 impropers
Finding 1-2 1-3 1-4 neighbors ...
  special bond factors lj:    0        0        0       
  special bond factors coul:  0        0        0       
     3 = max # of 1-2 neighbors
     2 = max # of 1-3 neighbors
     2 = max # of 1-4 neighbors
     3 = max # of special neighbors
  special bonds CPU = 0.000 seconds
  read_data CPU = 0.015 seconds

group Na type 1
210 atoms in group Na
group N type 2
210 atoms in group N
group O type 3
630 atoms in group O

# 1 Na 2 N 3 O
pair_coeff 1 1 9778.06 0.3170 24.18
pair_coeff 1 2 18139.97 0.2884 79.149
pair_coeff 1 3 24650.29 0.2727 79.193
pair_coeff 2 2 33652.75 0.2646 259.079
pair_coeff 2 3 45730.51 0.2513 259.22
pair_coeff 3 3 62142.9 0.2392 259.367
neighbor 2.0 bin
#neigh_modify one 5000

neigh_modify delay 5 check yes
replicate 6 4 2
Replication is creating a 6x4x2 = 48 times larger system...
  orthogonal box = (-13.5 -13.5 -13.5) to (148.5 94.5 40.5)
  2 by 1 by 1 MPI processor grid
  50400 atoms
  30240 bonds
  30240 angles
  10080 impropers
Finding 1-2 1-3 1-4 neighbors ...
  special bond factors lj:    0        0        0       
  special bond factors coul:  0        0        0       
     3 = max # of 1-2 neighbors
     2 = max # of 1-3 neighbors
     2 = max # of 1-4 neighbors
     3 = max # of special neighbors
  special bonds CPU = 0.008 seconds
  replicate CPU = 0.023 seconds

write_restart restart.NaNO3_supercell
System init for write_restart ...
PPPM initialization ...
  using 12-bit tables for long-range coulomb (../kspace.cpp:342)
  G vector (1/distance) = 0.24196708
  grid = 72 50 30
  stencil order = 5
  estimated absolute RMS force accuracy = 0.034752741
  estimated relative force accuracy = 0.00010465685
  using double precision KISS FFT
  3d grid and FFT values/proc = 83435 54000
Generated 0 of 3 mixed pair_coeff terms from geometric mixing rule
Neighbor list info ...
  update: every = 1 steps, delay = 5 steps, check = yes
  max neighbors/atom: 2000, page size: 100000
  master list distance cutoff = 13
  ghost atom cutoff = 13
  binsize = 6.5, bins = 25 17 9
  1 neighbor lists, perpetual/occasional/extra = 1 0 0
  (1) pair buck/long/coul/long, perpetual
      attributes: half, newton on
      pair build: half/bin/newton
      stencil: half/bin/3d
      bin: standard
restart 100 NaNO3_restart_equil_1 NaNO3_restart_equil_2

#--------------------------VARIABLES GLOBALES--------------------------------------------
#variable	boltzmann equal 8.617333262e-5
#variable        temp equal temp
#variable        step equal step
#variable        time equal time
#variable        avogadro equal 6.02214e23
#variable        vol equal vol
#variable        volCM3 equal  (vol*1.0e-24)
#variable        eTotal equal etotal
#variable        NumAtoms equal count(all)
#variable        densidad equal ((84.994/5)*v_NumAtoms)/(v_avogadro*v_vol*1.0e-24)
#variable        etotalatom equal etotal/atoms
#compute         msd all msd
#variable	msd equal c_msd[4]

compute         Stress all stress/atom NULL virial
compute         pe all pe/atom
compute         ke all ke/atom

#### ---------------------------------------------OUTPUT FILES---------------------------------------------------
#fix             impDensity all print 1000 "time: ${time} density:  ${densidad}" file densityTime.data screen no
#fix             impVol all print 1000 "time: ${time} vol: ${volCM3}" file timeVol.data screen no
#fix             impEtotal all print 1000 "time: ${time} Total_Energy: ${eTotal}" file totalE.data screen no
#fix		impMSD all print 1000 "time: ${time} MSD: ${msd}" file stepMSD.data screen no
#fix		impTempStep all print 1000 "time: ${time} temperature: ${temp}" file tempTime.data screen no
#fix		impDensityTemp all print 1000 "temp: ${temp} density: ${densidad}" file densityTemp.data screen no

thermo_style custom step etotal ecoul ebond press lx ly lz vol temp
#thermo_modify flush yes lost ignore lost/bond ignore
thermo 1000

##### Minimización
minimize     0 1.0e-4 2000 20000
Switching to 'neigh_modify every 1 delay 0 check yes' setting during minimization
PPPM initialization ...
  using 12-bit tables for long-range coulomb (../kspace.cpp:342)
  G vector (1/distance) = 0.24196708
  grid = 72 50 30
  stencil order = 5
  estimated absolute RMS force accuracy = 0.034752741
  estimated relative force accuracy = 0.00010465685
  using double precision KISS FFT
  3d grid and FFT values/proc = 83435 54000
Generated 0 of 3 mixed pair_coeff terms from geometric mixing rule
Per MPI rank memory allocation (min/avg/max) = 87.99 | 87.99 | 87.99 Mbytes
   Step         TotEng         E_coul         E_bond         Press            Lx             Ly             Lz           Volume          Temp     
         0  -1540888.2     -268208.33      1254.1155      1182.8417      162            108            54             944784         0            
      1000  -1686219.7     -378666         179.86181     -6003.0583      162            108            54             944784         0            
      2000  -1687854.9     -380462.39      178.85709     -5936.2851      162            108            54             944784         0            
Loop time of 848.896 on 2 procs for 2000 steps with 50400 atoms

99.9% CPU use with 2 MPI tasks x no OpenMP threads

Minimization stats:
  Stopping criterion = max iterations
  Energy initial, next-to-last, final = 
     -1540888.20613519  -1687852.70849266  -1687854.94816468
  Force two-norm initial, final = 1941.9624 38.81476
  Force max component initial, final = 64.878388 7.77745
  Final line search alpha, max atom move = 0.0035374753 0.027512537
  Iterations, force evaluations = 2000 3960

MPI task timing breakdown:
Section |  min time  |  avg time  |  max time  |%varavg| %total
---------------------------------------------------------------
Pair    | 633.07     | 665.79     | 698.5      | 126.8 | 78.43
Bond    | 8.7048     | 9.1221     | 9.5394     |  13.8 |  1.07
Kspace  | 119.15     | 152.3      | 185.44     | 268.6 | 17.94
Neigh   | 15.386     | 15.388     | 15.391     |   0.1 |  1.81
Comm    | 2.0418     | 2.0543     | 2.0668     |   0.9 |  0.24
Output  | 1.3239     | 1.3239     | 1.3239     |   0.0 |  0.16
Modify  | 0          | 0          | 0          |   0.0 |  0.00
Other   |            | 2.921      |            |       |  0.34

Nlocal:          25200 ave       25201 max       25199 min
Histogram: 1 0 0 0 0 0 0 0 0 1
Nghost:        35706.5 ave       35715 max       35698 min
Histogram: 1 0 0 0 0 0 0 0 0 1
Neighs:    6.17798e+06 ave 6.17998e+06 max 6.17597e+06 min
Histogram: 1 0 0 0 0 0 0 0 0 1

Total # of neighbors = 12355952
Ave neighs/atom = 245.15778
Ave special neighs/atom = 2.4
Neighbor list builds = 85
Dangerous builds = 0
reset_timestep 0

dump mydump all  custom 1000 jayaraman_original.dump  id element x y z vx vy vz
dump_modify     mydump element Na O N first yes


timestep        1  # 1 fs

#---------------------------------Equilibrio inicial---------------------------------------------

fix nve all nve
velocity        all create 300.0 4193182 rot yes mom yes dist gaussian
run 30000
PPPM initialization ...
  using 12-bit tables for long-range coulomb (../kspace.cpp:342)
  G vector (1/distance) = 0.24196708
  grid = 72 50 30
  stencil order = 5
  estimated absolute RMS force accuracy = 0.034752741
  estimated relative force accuracy = 0.00010465685
  using double precision KISS FFT
  3d grid and FFT values/proc = 83435 54000
Generated 0 of 3 mixed pair_coeff terms from geometric mixing rule
Per MPI rank memory allocation (min/avg/max) = 83.49 | 83.68 | 83.87 Mbytes
   Step         TotEng         E_coul         E_bond         Press            Lx             Ly             Lz           Volume          Temp     
         0  -1642786       -380462.39      178.85709     -3755.6761      162            108            54             944784         300          
      1000  -1642690.4     -367525.03      5004.2012     -4829.0162      162            108            54             944784         149.28396    
      2000  -1642682.8     -367771.21      4904.5558     -4843.2456      162            108            54             944784         152.95717    
      3000  -1642688.6     -368120.36      4656.8109     -5183.0205      162            108            54             944784         157.59099    
      4000  -1642683.6     -368441.42      4781.0744     -4949.3229      162            108            54             944784         158.67677    
      5000  -1642685.9     -368230.71      4789.8142     -5004.7509      162            108            54             944784         160.42682    
      6000  -1642685       -368903.24      4712.0242     -5104.8973      162            108            54             944784         163.07207    
      7000  -1642683.9     -369379.55      4808.546      -4867.3271      162            108            54             944784         162.78201    
      8000  -1642687.4     -369199.68      4833.6496     -4880.1021      162            108            54             944784         164.09299    
      9000  -1642688       -368963.03      4689.8506     -4990.2914      162            108            54             944784         165.22258    
     10000  -1642686.2     -369229.53      4762.9413     -4953.5597      162            108            54             944784         166.25469    
     11000  -1642688.5     -369444.61      4715.265      -4937.0642      162            108            54             944784         167.33224    
     12000  -1642691.1     -369880.19      4788.4132     -5106.2729      162            108            54             944784         168.146      
     13000  -1642688.8     -369502.76      4826.6912     -4956.2559      162            108            54             944784         168.46875    
     14000  -1642689.5     -369961.89      4749.04       -4772.8329      162            108            54             944784         169.81694    
     15000  -1642688.1     -370606.54      4765.2667     -4876.5353      162            108            54             944784         170.60631    
     16000  -1642689.7     -370673.33      4778.629      -4819.8861      162            108            54             944784         170.3586     
     17000  -1642688.3     -370387.54      4761.2035     -4912.3864      162            108            54             944784         171.65023    
     18000  -1642690.8     -370838.29      4773.9202     -4760.213       162            108            54             944784         172.61153    
     19000  -1642689.1     -370107.02      4774.7292     -4842.3456      162            108            54             944784         172.33623    
     20000  -1642689.3     -370981.03      4769.274      -4779.2398      162            108            54             944784         173.60078    
     21000  -1642687.6     -370587.01      4811.447      -5008.421       162            108            54             944784         173.50703    
     22000  -1642690.8     -370526.85      4798.6992     -4919.8024      162            108            54             944784         173.16716    
     23000  -1642691.4     -370361.67      4826.9044     -4913.7851      162            108            54             944784         175.58378    
     24000  -1642691.3     -371157.94      4801.9458     -4671.2418      162            108            54             944784         174.88323    
     25000  -1642692.1     -371201.64      4837.6659     -4794.1335      162            108            54             944784         175.17982    
     26000  -1642689.6     -370375.31      4864.8481     -5091.1163      162            108            54             944784         176.58837    
     27000  -1642686.6     -370385.9       4905.9341     -4862.2264      162            108            54             944784         174.76082    
     28000  -1642689.5     -370655.48      4860.8704     -4825.373       162            108            54             944784         176.16501    
     29000  -1642687.3     -371097.29      4870.879      -4897.0991      162            108            54             944784         175.70218    
     30000  -1642687.7     -371138.8       4863.1361     -5090.5492      162            108            54             944784         176.90959    
Loop time of 3913.06 on 2 procs for 30000 steps with 50400 atoms

Performance: 0.662 ns/day, 36.232 hours/ns, 7.667 timesteps/s, 386.399 katom-step/s
99.6% CPU use with 2 MPI tasks x no OpenMP threads

MPI task timing breakdown:
Section |  min time  |  avg time  |  max time  |%varavg| %total
---------------------------------------------------------------
Pair    | 3134.1     | 3137.1     | 3140       |   5.2 | 80.17
Bond    | 49.672     | 49.923     | 50.174     |   3.5 |  1.28
Kspace  | 585.75     | 586.6      | 587.46     |   3.5 | 14.99
Neigh   | 80.933     | 80.94      | 80.948     |   0.1 |  2.07
Comm    | 14.438     | 16.768     | 19.097     |  56.9 |  0.43
Output  | 28.145     | 28.146     | 28.146     |   0.0 |  0.72
Modify  | 8.389      | 8.4602     | 8.5315     |   2.4 |  0.22
Other   |            | 5.15       |            |       |  0.13

Nlocal:          25200 ave       25259 max       25141 min
Histogram: 1 0 0 0 0 0 0 0 0 1
Nghost:        35812.5 ave       35821 max       35804 min
Histogram: 1 0 0 0 0 0 0 0 0 1
Neighs:    6.18598e+06 ave 6.20828e+06 max 6.16368e+06 min
Histogram: 1 0 0 0 0 0 0 0 0 1

Total # of neighbors = 12371964
Ave neighs/atom = 245.47548
Ave special neighs/atom = 2.4
Neighbor list builds = 586
Dangerous builds = 0
unfix nve

#--------------------------------Calentamiento----------------------------------------------------

fix nvt all nvt temp 293.0 1300.0 $(100*dt)
fix nvt all nvt temp 293.0 1300.0 100
run 300000  #0.3 ns
PPPM initialization ...
  using 12-bit tables for long-range coulomb (../kspace.cpp:342)
  G vector (1/distance) = 0.24196708
  grid = 72 50 30
  stencil order = 5
  estimated absolute RMS force accuracy = 0.034752741
  estimated relative force accuracy = 0.00010465685
  using double precision KISS FFT
  3d grid and FFT values/proc = 83435 54000
Generated 0 of 3 mixed pair_coeff terms from geometric mixing rule
Per MPI rank memory allocation (min/avg/max) = 88.42 | 88.42 | 88.42 Mbytes
   Step         TotEng         E_coul         E_bond         Press            Lx             Ly             Lz           Volume          Temp     
     30000  -1642687.7     -371138.8       4863.1361     -5090.5492      162            108            54             944784         176.90959    
     31000  -1605953.3     -359327.36      8197.4178     -3975.4489      162            108            54             944784         291.98144    
     32000  -1602368.2     -356402.46      8568.8754     -3980.4806      162            108            54             944784         298.9899     
     33000  -1601709.6     -356540.49      8486.9497     -4189.4988      162            108            54             944784         303.73895    
     34000  -1600384.2     -355812.66      8715.151      -4256.9516      162            108            54             944784         306.48842    
     35000  -1599585.2     -354798.23      8648.7648     -4469.151       162            108            54             944784         311.10063    
     36000  -1598241       -354980.58      8920.9648     -3917.9562      162            108            54             944784         314.56611    
     37000  -1597214.3     -354568.68      8945.6054     -4075.9278      162            108            54             944784         318.8166     
     38000  -1596160.8     -353289.29      9073.3067     -4556.5246      162            108            54             944784         321.68601    
     39000  -1595157.7     -353940.04      9223.7598     -4171.9241      162            108            54             944784         324.72595    
     40000  -1594740.2     -353413.09      9303.929      -4051.9779      162            108            54             944784         325.65215    
     41000  -1592954.5     -352879.47      9411.3364     -4139.6874      162            108            54             944784         331.85477    
     42000  -1592577.6     -352639.12      9469.4604     -4243.5576      162            108            54             944784         333.79424    
     43000  -1591611.3     -351904.36      9561.3232     -4187.6605      162            108            54             944784         335.76522    
     44000  -1590280       -352220.87      9712.504      -4405.4723      162            108            54             944784         342.66087    
     45000  -1589454.7     -352027.4       9755.7234     -4102.3095      162            108            54             944784         343.84717    
     46000  -1588705.5     -351313.86      9848.1491     -3977.7806      162            108            54             944784         348.05113    
     47000  -1587477.3     -351001.49      10015.087     -4244.0223      162            108            54             944784         350.8502     
     48000  -1586770.4     -351566.25      10077.519     -4209.736       162            108            54             944784         353.60696    
     49000  -1585182.2     -351068.11      10313.908     -3818.1717      162            108            54             944784         357.17264    
     50000  -1584390.2     -350242.85      10204.114     -3956.0855      162            108            54             944784         362.30428    
     51000  -1583190.7     -349590.89      10366.777     -4080.7084      162            108            54             944784         363.45214    
     52000  -1582302.5     -349639.15      10478.706     -4007.0325      162            108            54             944784         366.59782    
     53000  -1581018.6     -349277.56      10713.598     -3906.7059      162            108            54             944784         371.81152    
     54000  -1580180.4     -348452.81      10747.83      -4186.6245      162            108            54             944784         374.19162    
     55000  -1579157       -348481.72      10826.638     -4034.6784      162            108            54             944784         377.01181    
     56000  -1578291.7     -347199.62      11017.139     -3975.7074      162            108            54             944784         379.1371     
     57000  -1577193.4     -347049.68      10997.87      -4186.933       162            108            54             944784         383.09972    
     58000  -1575369.3     -346996.34      11106.064     -3903.8226      162            108            54             944784         388.90761    
     59000  -1575328.2     -347334.87      11324.497     -3530.758       162            108            54             944784         387.87179    
     60000  -1573578.2     -347025.01      11436.909     -3691.1954      162            108            54             944784         395.25419    
     61000  -1572904.1     -346572.88      11465.424     -3772.041       162            108            54             944784         398.0834     
     62000  -1572153.4     -346721.72      11511.291     -3635.3393      162            108            54             944784         398.3389     
     63000  -1571249.4     -346039.13      11782.375     -3724.6963      162            108            54             944784         400.42431    
     64000  -1569660.1     -345916.92      11775.119     -3708.2936      162            108            54             944784         406.42564    
     65000  -1568936.1     -345823.32      11970.321     -3537.1403      162            108            54             944784         407.52876    
     66000  -1567326.3     -345203         11997.691     -3232.3446      162            108            54             944784         414.42916    
     67000  -1566456.8     -344770.39      12140.267     -3670.0075      162            108            54             944784         415.9755     
     68000  -1565518.1     -343887.86      12310.748     -3607.958       162            108            54             944784         419.01055    
     69000  -1564159.4     -343385.18      12192.977     -3527.674       162            108            54             944784         425.78142    
     70000  -1562848.7     -342292.03      12507.785     -3716.9528      162            108            54             944784         426.80664    
     71000  -1562235.8     -342715.17      12722.468     -3318.6814      162            108            54             944784         427.71739    
     72000  -1560353.4     -341746.71      12622.356     -3689.4536      162            108            54             944784         436.05688    
     73000  -1560083       -342867.01      12756.311     -3479.2001      162            108            54             944784         435.85413    
     74000  -1558242.8     -341365.44      12865.363     -3229.7339      162            108            54             944784         442.39179    
     75000  -1557369.2     -341325.23      13003.888     -3314.1289      162            108            54             944784         443.84588    
     76000  -1556027.8     -340402.45      13314.028     -3617.3957      162            108            54             944784         446.64338    
     77000  -1555874.2     -340644.74      13232.242     -3248.9247      162            108            54             944784         446.51732    
     78000  -1553844       -339174.33      13419.495     -3229.6487      162            108            54             944784         455.62003    
     79000  -1552464.3     -339868.48      13525.821     -3059.2342      162            108            54             944784         460.07182    
     80000  -1552133.3     -339418.02      13484.226     -3381.3711      162            108            54             944784         460.61315    
     81000  -1551229.9     -339052.72      13878.201     -3301.9673      162            108            54             944784         462.45168    
     82000  -1549639.2     -338768.17      13710.752     -3139.3959      162            108            54             944784         469.79205    
     83000  -1548360.8     -338782.62      13964.864     -3003.9077      162            108            54             944784         470.86866    
     84000  -1547645.7     -338422.1       14033.868     -3241.7872      162            108            54             944784         473.78771    
     85000  -1546343.2     -337732.83      14060.686     -2999.3865      162            108            54             944784         479.34876    
     86000  -1545314.6     -337431.66      14216.01      -2918.8051      162            108            54             944784         480.77935    
     87000  -1543779.3     -336357.08      14713.228     -3044.4228      162            108            54             944784         481.43091    
     88000  -1542874.1     -336897.85      14517.986     -3018.8132      162            108            54             944784         487.58102    
     89000  -1542050.9     -336607.28      14722.301     -2839.7551      162            108            54             944784         489.51365    
     90000  -1540593.4     -335103.6       14626.655     -2948.7512      162            108            54             944784         495.7587     
     91000  -1539147.5     -334633.17      14788.75      -2963.4463      162            108            54             944784         498.02881    
     92000  -1537850.7     -334342.37      15028.701     -3080.0353      162            108            54             944784         504.50889    
     93000  -1537117.7     -334218.47      15059.187     -2473.5795      162            108            54             944784         503.01615    
     94000  -1536316.5     -333600.08      15112.533     -2989.2434      162            108            54             944784         508.21873    
     95000  -1534868.7     -332512.18      15259.265     -3192.122       162            108            54             944784         509.92789    
     96000  -1534212.4     -333841.51      15169.463     -2706.6894      162            108            54             944784         515.7009     
     97000  -1533306.4     -333607.48      15621.06      -2708.593       162            108            54             944784         514.84142    
     98000  -1531987.5     -333032.12      15680.169     -2642.2654      162            108            54             944784         522.87442    
     99000  -1530515       -331858.48      15828.498     -2826.9549      162            108            54             944784         523.91396    
    100000  -1530141.1     -331423.72      15810.864     -2934.2802      162            108            54             944784         526.72108    
    101000  -1528734.9     -331145.87      16241.59      -2564.8531      162            108            54             944784         530.51956    
    102000  -1528078.8     -331142.01      15968.79      -2464.3529      162            108            54             944784         532.85845    
    103000  -1527189.2     -331089.29      16174.52      -2970.5666      162            108            54             944784         534.63077    
    104000  -1525128.8     -329688.29      16329.537     -2824.991       162            108            54             944784         542.20513    
    105000  -1523686.1     -329261.76      16508.589     -2289.7167      162            108            54             944784         545.11839    
    106000  -1522978.1     -329855.24      16346.58      -2598.6696      162            108            54             944784         550.05037    
    107000  -1522281.6     -329088.97      16754.417     -2660.0277      162            108            54             944784         548.74407    
    108000  -1520642.3     -328862         16562.249     -2133.2478      162            108            54             944784         554.90239    
    109000  -1520318.3     -328979.77      16731.675     -2316.9378      162            108            54             944784         555.98087    
    110000  -1518624       -328850.64      16885.744     -2475.3986      162            108            54             944784         563.8144     
    111000  -1518113       -327267.35      16982.852     -2480.593       162            108            54             944784         561.76409    
    112000  -1516840.8     -327089.3       17113.359     -2530.5663      162            108            54             944784         568.05554    
    113000  -1515676.2     -327653.7       17230.73      -2344.221       162            108            54             944784         569.28863    
    114000  -1515442.9     -327165.96      17265.236     -2205.5617      162            108            54             944784         571.32129    
    115000  -1512571.6     -326183.24      17324.028     -2399.8149      162            108            54             944784         578.63839    
    116000  -1512654.7     -325974.21      17509.306     -2015.3109      162            108            54             944784         580.45126    
    117000  -1511211.1     -325707.79      17529.71      -2383.3203      162            108            54             944784         587.39027    
    118000  -1509108.1     -324846.17      17894.198     -2235.03        162            108            54             944784         589.2349     
    119000  -1508681.7     -325437.43      17739.4       -1961.8341      162            108            54             944784         594.78345    
    120000  -1507558.7     -324303.99      18103.463     -2371.8238      162            108            54             944784         594.30376    
    121000  -1506454.3     -324190.13      17986.706     -2050.2319      162            108            54             944784         598.99309    
    122000  -1505728.2     -324452.32      17995.848     -2041.3285      162            108            54             944784         603.73928    
    123000  -1504096.7     -323783.75      18223.299     -2170.5226      162            108            54             944784         611.06577    
    124000  -1503970.8     -323012.01      18317.525     -2040.3271      162            108            54             944784         607.1099     
    125000  -1503023       -323100.61      18340.501     -2138.8114      162            108            54             944784         611.53823    
    126000  -1501056.5     -321870.81      18522.557     -2309.6977      162            108            54             944784         617.83574    
    127000  -1499501.8     -322296.55      18622.762     -2226.8758      162            108            54             944784         619.72793    
    128000  -1499317.8     -321504.1       18766.58      -1778.0196      162            108            54             944784         621.16144    
    129000  -1497484.3     -320644.83      19139.01      -2091.4432      162            108            54             944784         626.38583    
    130000  -1497281.2     -322963.78      19003.568     -1679.654       162            108            54             944784         630.73937    
    131000  -1495606.3     -320526.04      19216.208     -1899.4603      162            108            54             944784         635.44299    
    132000  -1494102.4     -319399.36      19146.293     -1978.5489      162            108            54             944784         635.04863    
    133000  -1493109.1     -320185.9       19502.495     -1870.7791      162            108            54             944784         638.6653     
    134000  -1493317.2     -319594.98      19300.262     -1953.6095      162            108            54             944784         639.94573    
    135000  -1490490.7     -318574.63      19517.448     -1595.9143      162            108            54             944784         648.70105    
    136000  -1489404.6     -317325.89      19517.696     -1992.2454      162            108            54             944784         651.57281    
    137000  -1489565.1     -317666.07      19337.605     -2521.8784      162            108            54             944784         651.8995     
    138000  -1488050.4     -318635.08      19948.011     -1473.0745      162            108            54             944784         655.46114    
    139000  -1487566.3     -317685.62      19725.152     -1825.0064      162            108            54             944784         661.42788    
    140000  -1485670.6     -317140.26      20178.75      -2033.1635      162            108            54             944784         660.01839    
    141000  -1484921.1     -317685.75      20144.039     -1569.7395      162            108            54             944784         665.27109    
    142000  -1483282.3     -315307.5       20202.574     -2042.3289      162            108            54             944784         665.70935    
    143000  -1482985.2     -315218.19      20289.646     -1858.0237      162            108            54             944784         669.32421    
    144000  -1481100.7     -316326.24      20596.253     -1488.8967      162            108            54             944784         675.26489    
    145000  -1480511.1     -315889.36      20586.301     -1585.7756      162            108            54             944784         680.54865    
    146000  -1478615.4     -313877.11      20826.539     -1671.5567      162            108            54             944784         682.11205    
    147000  -1478621.6     -313921.56      20944.032     -1777.6247      162            108            54             944784         684.74567    
    148000  -1476759.3     -315557.21      20979.594     -1554.6032      162            108            54             944784         691.75812    
    149000  -1475967.4     -313896.45      21203.187     -1729.6213      162            108            54             944784         692.54594    
    150000  -1474301.9     -312874.91      21272.401     -1588.3531      162            108            54             944784         696.83537    
    151000  -1473378.9     -313629.85      21316.982     -1435.4092      162            108            54             944784         699.75954    
    152000  -1472365.8     -312090.74      21357.494     -1597.3358      162            108            54             944784         703.15882    
    153000  -1471024.6     -312418.54      21410.169     -1678.7088      162            108            54             944784         708.32217    
    154000  -1469719.1     -312048.16      21457.738     -1615.5563      162            108            54             944784         715.09578    
    155000  -1467965.4     -310433.63      21783         -1373.4598      162            108            54             944784         716.51031    
    156000  -1467053.4     -310546.68      21983.522     -1351.0248      162            108            54             944784         716.69099    
    157000  -1466255.3     -311244.52      21670.241     -1379.5611      162            108            54             944784         725.99213    
    158000  -1465692       -310012.12      22189.075     -1507.2855      162            108            54             944784         721.54966    
    159000  -1464835.1     -309989.83      22067.976     -1628.6155      162            108            54             944784         724.94683    
    160000  -1463191.9     -309406.42      22324.517     -1743.6657      162            108            54             944784         726.84035    
    161000  -1463133.5     -310446.65      22255.224     -1332.814       162            108            54             944784         728.91307    
    162000  -1461266.7     -309634.07      22796.907     -1296.4958      162            108            54             944784         736.45861    
    163000  -1460034.1     -309270.71      22459.215     -1178.8092      162            108            54             944784         741.89684    
    164000  -1459336.9     -308442.26      22590.764     -1070.2085      162            108            54             944784         741.4843     
    165000  -1456850.1     -308671.4       22576.763     -1299.0641      162            108            54             944784         749.45759    
    166000  -1456571.7     -307909.04      22926.935     -1080.2881      162            108            54             944784         753.24581    
    167000  -1455903.8     -307341.19      23031.074     -1364.2737      162            108            54             944784         750.84312    
    168000  -1453743.6     -305845.16      23241.929     -1144.7169      162            108            54             944784         757.57521    
    169000  -1452884.6     -306508.6       23214.644     -988.84418      162            108            54             944784         763.2075     
    170000  -1451872.4     -305107.21      23214.534     -1437.8315      162            108            54             944784         766.44897    
    171000  -1452502.3     -305850.73      23362.977     -1293.1376      162            108            54             944784         762.0069     
    172000  -1449967.1     -305553.76      23516.338     -1033.1698      162            108            54             944784         770.70846    
    173000  -1449907.8     -305408.99      23618.072     -907.68698      162            108            54             944784         768.42282    
    174000  -1448130.7     -305734.53      23956.86      -751.36333      162            108            54             944784         775.1867     
    175000  -1446957.3     -303810.32      24058.372     -1128.8427      162            108            54             944784         778.3228     
    176000  -1446757       -302930.03      23927.042     -1344.7141      162            108            54             944784         776.38335    
    177000  -1444060.2     -303616.88      23999.724     -922.79923      162            108            54             944784         788.37745    
    178000  -1444261       -303919.55      24227.258     -1013.4221      162            108            54             944784         788.41872    
    179000  -1442086.1     -302504.71      24158.771     -1353.3698      162            108            54             944784         796.99161    
    180000  -1442487       -302993.88      24230.614     -912.58665      162            108            54             944784         793.87255    
    181000  -1439775.5     -301571         24567.709     -725.8332       162            108            54             944784         802.9805     
    182000  -1439650.4     -302171.6       24567.442     -767.5077       162            108            54             944784         800.8691     
    183000  -1438111.3     -301400.11      24727.442     -1102.9067      162            108            54             944784         807.77377    
    184000  -1437383.9     -300550.09      24771.821     -1218.1571      162            108            54             944784         812.35518    
    185000  -1435078.9     -300553.22      25061.414     -733.41915      162            108            54             944784         813.86105    
    186000  -1434745       -299213.8       25186.393     -978.59753      162            108            54             944784         816.67987    
    187000  -1433828.3     -298761.5       25062.159     -978.89218      162            108            54             944784         815.07311    
    188000  -1431311.8     -297921.03      25444.815     -1111.0177      162            108            54             944784         823.37945    
    189000  -1431259       -298450.22      25261.145     -995.52245      162            108            54             944784         827.24998    
    190000  -1430476       -298239.03      25446.621     -1131.9425      162            108            54             944784         828.05615    
    191000  -1428613.8     -297699.96      25065.105     -874.27921      162            108            54             944784         833.90419    
    192000  -1427396.2     -297383.7       25585.994     -909.0217       162            108            54             944784         839.53089    
    193000  -1425841       -296223.31      26009.343     -1121.9266      162            108            54             944784         841.89433    
    194000  -1426379       -295649.61      25512.394     -933.20861      162            108            54             944784         836.47927    
    195000  -1423715.7     -296267.83      25787.444     -1057.8014      162            108            54             944784         847.87513    
    196000  -1423060.6     -295380.66      25881.46      -770.40352      162            108            54             944784         847.48991    
    197000  -1421532.2     -294802.35      26477.204     -567.76778      162            108            54             944784         855.78773    
    198000  -1422337       -294340.12      26048.396     -1606.1653      162            108            54             944784         851.65189    
    199000  -1419350.6     -293574.93      26213.547     -920.51839      162            108            54             944784         858.32033    
    200000  -1417565.9     -293630.94      26772.517     -487.43997      162            108            54             944784         860.67202    
    201000  -1417649.5     -292154.01      26726.378     -1501.7613      162            108            54             944784         864.71836    
    202000  -1416328.8     -292747.27      26784.639     -1211.8069      162            108            54             944784         872.51164    
    203000  -1414644.1     -292255.97      26988.824     -863.50801      162            108            54             944784         877.06535    
    204000  -1415189.8     -291876.38      27071.618     -934.32046      162            108            54             944784         870.42006    
    205000  -1412568.4     -292096.37      27051.873     -1052.4377      162            108            54             944784         887.23286    
    206000  -1410970.6     -291200.92      27310.048     -783.46776      162            108            54             944784         882.74072    
    207000  -1410402       -290201.39      27120.234     -756.37016      162            108            54             944784         886.46186    
    208000  -1409175.8     -290891.69      27346.798     -1172.8237      162            108            54             944784         895.99838    
    209000  -1409039.6     -290280.78      27414.113     -620.54529      162            108            54             944784         895.4835     
    210000  -1407934.4     -289320.26      27756.821     -1238.0859      162            108            54             944784         892.07343    
    211000  -1406759.2     -290801.89      27628.705     -509.62522      162            108            54             944784         898.2566     
    212000  -1405153.9     -289026.28      27244.88      -492.11949      162            108            54             944784         902.55272    
    213000  -1403214.6     -289240.03      27789.039     -333.03627      162            108            54             944784         912.47994    
    214000  -1403718.3     -289331.03      27819.493     -135.45232      162            108            54             944784         908.06489    
    215000  -1401714.8     -288472.2       28046.443     -758.93142      162            108            54             944784         913.58029    
    216000  -1400473.7     -286994.22      28146.421     -304.09227      162            108            54             944784         919.22311    
    217000  -1401119.2     -287910.17      28138.619     -656.98231      162            108            54             944784         914.7426     
    218000  -1399651.1     -286877.39      28059.311     -855.46301      162            108            54             944784         922.98793    
    219000  -1397548.4     -286818.23      28376.983     -327.48495      162            108            54             944784         926.55843    
    220000  -1396383.9     -285572.61      28355.136     -709.33635      162            108            54             944784         926.28746    
    221000  -1396447.7     -285604.16      28124.95      -606.08452      162            108            54             944784         930.53395    
    222000  -1394259       -284751.17      28537.937     -654.30459      162            108            54             944784         935.37755    
    223000  -1393759.1     -284559.2       28473.025     -935.40282      162            108            54             944784         941.14195    
    224000  -1391720.4     -283499.12      28774.894     -821.78958      162            108            54             944784         942.79481    
    225000  -1389242.6     -282768.06      29018.923     -648.44038      162            108            54             944784         947.88216    
    226000  -1388773.7     -282726.08      29605.118     -759.64974      162            108            54             944784         948.28594    
    227000  -1388203.4     -282133.82      29339.774     -934.94798      162            108            54             944784         951.06367    
    228000  -1386482.5     -281759.93      29186.474     -931.5773       162            108            54             944784         960.54787    
    229000  -1385473.3     -281999.42      29362.137     -747.02429      162            108            54             944784         962.12534    
    230000  -1384097.2     -281996.87      30106.512     -775.26538      162            108            54             944784         962.10543    
    231000  -1384169.3     -281379.46      29780.883     -735.36876      162            108            54             944784         964.96872    
    232000  -1383464.1     -280433.33      29683.85      -698.02627      162            108            54             944784         966.17838    
    233000  -1380866.7     -279712.36      30100.532     -580.92548      162            108            54             944784         974.31259    
    234000  -1381200.4     -279049.72      30010.577     -844.70329      162            108            54             944784         974.72373    
    235000  -1379214       -279227         30127.228     -502.71249      162            108            54             944784         979.84537    
    236000  -1377816.1     -279537.32      29951.381     -767.17725      162            108            54             944784         987.10536    
    237000  -1376565.9     -278431.06      30438.668     -636.2929       162            108            54             944784         981.85141    
    238000  -1376114.2     -278478.19      30399.931     -249.95862      162            108            54             944784         991.74683    
    239000  -1373231.8     -275921.01      30537.743     -855.64587      162            108            54             944784         995.60315    
    240000  -1372810.6     -276606.58      30547.743     -883.95116      162            108            54             944784         994.68592    
    241000  -1372127.6     -276225.98      30940.873     -820.04622      162            108            54             944784         997.34976    
    242000  -1371037.8     -277634.12      30381.908     -151.96628      162            108            54             944784         1007.721     
    243000  -1369417.7     -277551.98      30835.978     -83.088731      162            108            54             944784         1011.2629    
    244000  -1367934       -275527.83      30993.929     -653.06851      162            108            54             944784         1012.7633    
    245000  -1366070.4     -275122.12      31362.885     -44.10258       162            108            54             944784         1017.6908    
    246000  -1366400.1     -274189.36      31035.539     -1042.6507      162            108            54             944784         1017.6567    
    247000  -1366867.6     -275459.29      31461.761     -442.39804      162            108            54             944784         1008.3318    
    248000  -1363785.1     -273103.06      31366.344     -218.57809      162            108            54             944784         1025.4812    
    249000  -1363105.8     -273397.67      31413.435     -936.86422      162            108            54             944784         1024.3376    
    250000  -1361909.9     -271185.68      31312.169     -689.89759      162            108            54             944784         1031.5051    
    251000  -1359564.9     -273031.82      31948.535      41.613923      162            108            54             944784         1037.5291    
    252000  -1358589.3     -273153.82      31690.526     -532.32206      162            108            54             944784         1042.1124    
    253000  -1358728.2     -271138.09      32368.874     -305.07289      162            108            54             944784         1037.7956    
    254000  -1357949.9     -271354         31729.986     -576.02685      162            108            54             944784         1039.4368    
    255000  -1356318       -270009.98      31565.547     -716.67295      162            108            54             944784         1055.3618    
    256000  -1356190.4     -269175.69      31707.339     -615.83168      162            108            54             944784         1046.4242    
    257000  -1354443.8     -271017.13      31749.379     -334.14937      162            108            54             944784         1058.4413    
    258000  -1352535.9     -269710.48      32114.978     -247.11866      162            108            54             944784         1059.5821    
    259000  -1351799.8     -268654.42      32248.661     -682.51748      162            108            54             944784         1062.397     
    260000  -1352488.3     -269367.29      32007.443     -223.69822      162            108            54             944784         1061.9927    
    261000  -1349214.8     -269775.26      32557.318     -60.102995      162            108            54             944784         1073.5179    
    262000  -1350130.6     -268131.21      32988.826     -600.12945      162            108            54             944784         1065.2082    
    263000  -1348289.4     -268229.33      32587.183     -213.96581      162            108            54             944784         1072.1294    
    264000  -1347212.1     -266666.76      32820.971     -237.92644      162            108            54             944784         1074.683     
    265000  -1346384.9     -267796.44      32947.587     -196.47555      162            108            54             944784         1076.3645    
    266000  -1345712.1     -267450.5       33060.84       4.9183292      162            108            54             944784         1081.587     
    267000  -1343839       -267101.29      33349.545     -307.36137      162            108            54             944784         1086.8506    
    268000  -1343314.3     -266953.98      32972.565      54.514378      162            108            54             944784         1090.9282    
    269000  -1342438       -267771         33237.177     -249.02518      162            108            54             944784         1088.6758    
    270000  -1341222.5     -265742.6       33063.432     -13.761414      162            108            54             944784         1098.7837    
    271000  -1339419.9     -265176.35      33199.374     -314.49376      162            108            54             944784         1102.0223    
    272000  -1339859.3     -266930.75      33590.076     -230.36465      162            108            54             944784         1102.1465    
    273000  -1338100       -266507.16      33656.369      654.21587      162            108            54             944784         1103.2963    
    274000  -1335480.1     -265446.4       34103.6       -311.12607      162            108            54             944784         1115.2955    
    275000  -1337544.7     -265215.13      33667.623     -94.731238      162            108            54             944784         1111.769     
    276000  -1335214.7     -265528.72      33858.242      416.5635       162            108            54             944784         1114.8732    
    277000  -1332739.4     -265198.25      33797.11       233.51666      162            108            54             944784         1128.6336    
    278000  -1333944.3     -266102.74      33750.098      445.61729      162            108            54             944784         1125.9339    
    279000  -1332638.6     -265432.19      33978.662     -33.901026      162            108            54             944784         1126.6564    
    280000  -1331299       -264700.87      34060.563      32.28858       162            108            54             944784         1133.8259    
    281000  -1328800       -263277.11      34483.911      546.40725      162            108            54             944784         1138.3719    
    282000  -1328361.6     -262958.46      34529.151     -162.6735       162            108            54             944784         1142.8847    
    283000  -1328824.3     -262882.52      34705.699      175.62418      162            108            54             944784         1138.3276    
    284000  -1326970.5     -262940.21      34755.614      442.38154      162            108            54             944784         1139.3488    
    285000  -1325699.2     -263373.14      35171.934     -231.51812      162            108            54             944784         1148.4648    
    286000  -1324626.9     -262542.07      34952.357      398.17077      162            108            54             944784         1156.222     
    287000  -1323840.3     -262021.18      35448.852      294.67092      162            108            54             944784         1154.3793    
    288000  -1322251.6     -262846.96      35204.296      421.9006       162            108            54             944784         1164.815     
    289000  -1322572.6     -262292.65      35667.544      375.48301      162            108            54             944784         1157.8891    
    290000  -1320462.3     -262357.17      35369.753      431.49462      162            108            54             944784         1165.3645    
    291000  -1318914.5     -260654.54      35540.876      840.12254      162            108            54             944784         1170.5761    
    292000  -1321657.6     -262505.35      34831.892      467.13307      162            108            54             944784         1168.5568    
    293000  -1319037.4     -261048.16      35203.885      499.19275      162            108            54             944784         1174.541     
    294000  -1316700.8     -262452.77      35169.946      380.69439      162            108            54             944784         1183.1634    
    295000  -1317353.7     -261473.81      35097.057      823.79582      162            108            54             944784         1183.4189    
    296000  -1316130.5     -261541.12      35710.943      917.683        162            108            54             944784         1186.5884    
    297000  -1314153.1     -260364.29      36168.916      449.1252       162            108            54             944784         1189.0132    
    298000  -1312309.3     -260756.53      35935.111      1379.6037      162            108            54             944784         1199.013     
    299000  -1311788.7     -259286.8       36188.392      202.98628      162            108            54             944784         1200.9923    
    300000  -1311329.5     -261245.71      36028.218      891.95061      162            108            54             944784         1198.652     
    301000  -1309850.7     -258787.66      36372.671      810.03676      162            108            54             944784         1206.912     
    302000  -1308523.1     -257453.71      36285.949      596.40281      162            108            54             944784         1211.786     
    303000  -1307681.6     -258284.19      36921.966      1213.9968      162            108            54             944784         1206.8351    
    304000  -1309170.6     -259172.2       36537.933      938.16671      162            108            54             944784         1204.7182    
    305000  -1306791.2     -260937.66      36752.601      930.94132      162            108            54             944784         1219.1035    
    306000  -1306347.5     -260017.7       36803.755      920.09336      162            108            54             944784         1215.3227    
    307000  -1304691.3     -259110.1       36858.919      1072.9369      162            108            54             944784         1225.3251    
    308000  -1302540.1     -258357.57      37671.599      948.83956      162            108            54             944784         1228.7793    
    309000  -1303201.4     -260020.68      37308.16       945.18049      162            108            54             944784         1230.4408    
    310000  -1301409.4     -257597.9       37746.305      1147.6015      162            108            54             944784         1230.6082    
    311000  -1301294.2     -257444.78      37408.782      1029.3844      162            108            54             944784         1235.131     
    312000  -1299091.3     -257208.22      37886.17       1019.2132      162            108            54             944784         1235.1516    
    313000  -1299149.4     -258023.86      37864.449      1351.4486      162            108            54             944784         1244.5116    
    314000  -1297459.2     -258153.92      37804.919      1399.439       162            108            54             944784         1246.8706    
    315000  -1296820.1     -257956.57      37683.349      1729.0271      162            108            54             944784         1250.409     
    316000  -1294558.7     -257390.37      37959.44       1333.2926      162            108            54             944784         1257.5532    
    317000  -1295192.8     -257460.96      37952.581      1338.6196      162            108            54             944784         1252.3258    
    318000  -1294048.6     -256420.96      38265.53       1590.9146      162            108            54             944784         1259.2406    
    319000  -1292358.2     -255724.03      38532.518      989.63003      162            108            54             944784         1267.3291    
    320000  -1292168.2     -256119.4       37973.991      1422.0342      162            108            54             944784         1268.7772    
    321000  -1292737       -256211.67      38024.755      1042.8323      162            108            54             944784         1268.7144    
    322000  -1290381.5     -255415.7       38731.632      1776.2016      162            108            54             944784         1273.9219    
    323000  -1289344.4     -255397.38      38744.567      1581.3756      162            108            54             944784         1272.8045    
    324000  -1287696.5     -255524.77      38995.255      1351.8171      162            108            54             944784         1281.7126    
    325000  -1287698       -255008.54      38770.224      1375.666       162            108            54             944784         1278.3144    
    326000  -1284219.4     -254628.45      39396.788      1014.9469      162            108            54             944784         1290.3664    
    327000  -1285262.3     -254873.02      39383.828      2244.1786      162            108            54             944784         1289.4998    
    328000  -1285028.9     -255040.35      39258.55       1647.6913      162            108            54             944784         1295.6732    
    329000  -1281846.8     -254218.67      39334.824      1407.6817      162            108            54             944784         1303.9443    
    330000  -1282735.2     -254557.45      39312.318      2019.1532      162            108            54             944784         1306.1449    
Loop time of 40469 on 2 procs for 300000 steps with 50400 atoms

Performance: 0.640 ns/day, 37.471 hours/ns, 7.413 timesteps/s, 373.620 katom-step/s
99.7% CPU use with 2 MPI tasks x no OpenMP threads

MPI task timing breakdown:
Section |  min time  |  avg time  |  max time  |%varavg| %total
---------------------------------------------------------------
Pair    | 31426      | 31971      | 32517      | 305.0 | 79.00
Bond    | 489.55     | 497.45     | 505.34     |  35.4 |  1.23
Kspace  | 5501.2     | 6040.6     | 6579.9     | 693.9 | 14.93
Neigh   | 1364.4     | 1364.5     | 1364.5     |   0.2 |  3.37
Comm    | 150.88     | 164.89     | 178.9      | 109.1 |  0.41
Output  | 245.76     | 245.76     | 245.76     |   0.0 |  0.61
Modify  | 133.84     | 134.02     | 134.21     |   1.6 |  0.33
Other   |            | 50.42      |            |       |  0.12

Nlocal:          25200 ave       25240 max       25160 min
Histogram: 1 0 0 0 0 0 0 0 0 1
Nghost:          35864 ave       35894 max       35834 min
Histogram: 1 0 0 0 0 0 0 0 0 1
Neighs:    6.17631e+06 ave 6.19615e+06 max 6.15648e+06 min
Histogram: 1 0 0 0 0 0 0 0 0 1

Total # of neighbors = 12352628
Ave neighs/atom = 245.09183
Ave special neighs/atom = 2.4
Neighbor list builds = 9326
Dangerous builds = 0
unfix nvt

fix nvt all nvt temp 1300.0 1300.0 $(100*dt)
fix nvt all nvt temp 1300.0 1300.0 100
run 500000 #0.5 ns
PPPM initialization ...
  using 12-bit tables for long-range coulomb (../kspace.cpp:342)
  G vector (1/distance) = 0.24196708
  grid = 72 50 30
  stencil order = 5
  estimated absolute RMS force accuracy = 0.034752741
  estimated relative force accuracy = 0.00010465685
  using double precision KISS FFT
  3d grid and FFT values/proc = 83435 54000
Generated 0 of 3 mixed pair_coeff terms from geometric mixing rule
Per MPI rank memory allocation (min/avg/max) = 89.29 | 90.45 | 91.6 Mbytes
   Step         TotEng         E_coul         E_bond         Press            Lx             Ly             Lz           Volume          Temp     
    330000  -1282735.2     -254557.45      39312.318      2019.1532      162            108            54             944784         1306.1449    
    331000  -1282861.1     -254909.98      39388.551      1292.3685      162            108            54             944784         1295.5954    
    332000  -1281145.5     -255036         39369.847      1774.8867      162            108            54             944784         1304.1715    
    333000  -1282271.5     -254650.41      39037.818      2277.3413      162            108            54             944784         1301.5669    
    334000  -1283533.1     -254791.67      39274.074      1416.1276      162            108            54             944784         1291.4786    
    335000  -1283602.1     -255947.15      39525.033      1876.9807      162            108            54             944784         1296.54      
    336000  -1283433.4     -254119.84      39042.076      1368.3284      162            108            54             944784         1296.5118    
    337000  -1283043.5     -254693.22      39448.72       1637.6319      162            108            54             944784         1297.8419    
    338000  -1283691.2     -254655.15      39386.609      1207.8449      162            108            54             944784         1291.047     
    339000  -1282534.3     -253293.87      39455.986      1439.3849      162            108            54             944784         1298.7765    
    340000  -1282135.3     -255108.16      39139.262      1475.6515      162            108            54             944784         1300.8204    
    341000  -1284215.2     -255423.31      39156.296      1195.1838      162            108            54             944784         1298.1169    
    342000  -1283313.3     -253945.81      39480.184      2104.7647      162            108            54             944784         1293.5417    
    343000  -1282685.8     -254770.7       39116.146      1774.712       162            108            54             944784         1296.9577    
    344000  -1281778.1     -253090.15      39151.436      1693.3011      162            108            54             944784         1308.3063    
    345000  -1282056       -255370.14      39251.7        1624.475       162            108            54             944784         1304.7659    
    346000  -1284568.8     -254527.01      39103.439      1801.204       162            108            54             944784         1295.7558    
    347000  -1282869.7     -255516.47      39502.497      1875.0272      162            108            54             944784         1300.3705    
    348000  -1282804.3     -256134.18      39450.306      1728.7326      162            108            54             944784         1299.6747    
    349000  -1282287.8     -254863.23      39626.945      1562.7787      162            108            54             944784         1302.8193    
    350000  -1281936.4     -254586.38      39846.434      1718.3762      162            108            54             944784         1298.0324    
    351000  -1282570.1     -253477.43      39118.984      1259.5142      162            108            54             944784         1303.0806    
    352000  -1284075.2     -253302.07      39137.187      1234.4754      162            108            54             944784         1295.2753    
    353000  -1282835.5     -253672.08      39316.535      1733.1656      162            108            54             944784         1297.1864    
    354000  -1282054.8     -254494.64      39792.859      1405.9055      162            108            54             944784         1300.2038    
    355000  -1284022.6     -254443.42      39268.117      1720.3147      162            108            54             944784         1290.13      
    356000  -1283085.1     -253756.75      39865.83       1278.3335      162            108            54             944784         1296.7305    
    357000  -1282954.2     -254333.08      39403.18       1446.0122      162            108            54             944784         1297.5473    
    358000  -1281859.8     -252616.77      38617.993      1279.7702      162            108            54             944784         1302.2352    
    359000  -1279947.6     -252623.47      39626.952      1713.2598      162            108            54             944784         1308.7817    
    360000  -1281947.1     -253336.94      39726.02       1559.6599      162            108            54             944784         1300.4161    
    361000  -1282379.6     -255193.16      39929.034      1640.8268      162            108            54             944784         1298.5349    
    362000  -1283093.7     -253706.76      40001.152      1368.0702      162            108            54             944784         1295.696     
    363000  -1284416.6     -253596.8       39466.946      1179.2553      162            108            54             944784         1292.2333    
    364000  -1282195.3     -253626.07      39769.114      1007.8912      162            108            54             944784         1299.4751    
    365000  -1282918.2     -254837.19      39150.225      2032.0144      162            108            54             944784         1299.1344    
    366000  -1283717       -254885.02      39563.734      1710.8724      162            108            54             944784         1300.68      
    367000  -1282020.5     -255093.68      39076.817      1717.274       162            108            54             944784         1305.7955    
    368000  -1282187.1     -254383.27      39406.488      1128.9283      162            108            54             944784         1296.8969    
    369000  -1282624.7     -254540.78      39462.911      2222.1315      162            108            54             944784         1299.4519    
    370000  -1282415.7     -254986.27      39461.112      1919.9184      162            108            54             944784         1299.2951    
    371000  -1283948.9     -254301.04      39078.906      1406.9803      162            108            54             944784         1293.3402    
    372000  -1283299.6     -254372.68      39900.399      1663.3442      162            108            54             944784         1292.8809    
    373000  -1282083.1     -254949.99      39503.951      1893.2993      162            108            54             944784         1294.201     
    374000  -1282670.6     -254401.8       39261.3        1380.2579      162            108            54             944784         1299.8504    
    375000  -1282084.3     -252927.24      39352.358      1574.3268      162            108            54             944784         1303.1798    
    376000  -1281310.8     -254156.71      39242.841      1391.8767      162            108            54             944784         1307.6129    
    377000  -1283745.5     -255392.78      39348.627      1344.7381      162            108            54             944784         1297.8601    
    378000  -1283096.7     -254342.25      38935.401      2134.4482      162            108            54             944784         1303.1025    
    379000  -1280692.7     -253295.1       39327.673      1490.408       162            108            54             944784         1303.501     
    380000  -1282851.4     -255079.93      38960.187      2142.9512      162            108            54             944784         1296.0804    
    381000  -1283807.9     -254239.76      39479.35       1382.3745      162            108            54             944784         1295.4423    
    382000  -1281390.9     -254877.07      39086.137      1205.6379      162            108            54             944784         1307.2085    
    383000  -1283383.2     -254404.8       39038.512      1293.0284      162            108            54             944784         1301.3027    
    384000  -1283187.1     -254866.78      39262.928      1721.9634      162            108            54             944784         1297.518     
    385000  -1281603.7     -253736.3       39002.779      1278.5714      162            108            54             944784         1303.7534    
    386000  -1282111.2     -254356.33      39286.909      1413.831       162            108            54             944784         1300.8024    
    387000  -1285532.4     -255965.64      39162.429      1896.3098      162            108            54             944784         1287.299     
    388000  -1282263.9     -253686.97      39549.323      1423.0045      162            108            54             944784         1300.1143    
    389000  -1282928.1     -254726.49      38881.917      1914.5338      162            108            54             944784         1300.1858    
    390000  -1282899.6     -254146.97      39346.85       1605.2476      162            108            54             944784         1298.9514    
    391000  -1281293.4     -254537.56      39288.267      1597.2786      162            108            54             944784         1299.8054    
    392000  -1283552.7     -254562.52      38722.994      1549.4063      162            108            54             944784         1304.4108    
    393000  -1282431.3     -254157.9       38755.212      1366.0809      162            108            54             944784         1299.4284    
    394000  -1282638.7     -253545.99      39485.883      1743.0819      162            108            54             944784         1292.6761    
    395000  -1282887.9     -253298.06      38714.153      1738.4453      162            108            54             944784         1295.0677    
    396000  -1281698.3     -254383.84      39164.595      1549.2411      162            108            54             944784         1305.3845    
    397000  -1284009.5     -254125.99      39126.604      1432.2355      162            108            54             944784         1293.4639    
    398000  -1282493.6     -254853.67      39163.701      2061.9803      162            108            54             944784         1296.9048    
    399000  -1284101.9     -254221.69      38514.969      1490.6716      162            108            54             944784         1294.2816    
    400000  -1281409.6     -253540.31      39371.944      1616.3209      162            108            54             944784         1298.6048    
    401000  -1282654.7     -254926.42      38784.945      1861.824       162            108            54             944784         1304.9061    
    402000  -1282577       -254265.25      38884.202      1737.1586      162            108            54             944784         1298.6513    
    403000  -1282714.5     -253599.69      39060.868      1836.7041      162            108            54             944784         1297.555     
    404000  -1282968.9     -255136.28      39265.564      1229.4261      162            108            54             944784         1301.418     
    405000  -1281556.9     -253969.67      39533.018      2490.1981      162            108            54             944784         1303.436     
    406000  -1282737.1     -254234.56      39183.201      1553.8559      162            108            54             944784         1296.488     
    407000  -1283281.2     -255006.48      39329.274      1750.7082      162            108            54             944784         1299.8895    
    408000  -1281989.5     -254451.91      39756.814      1936.5184      162            108            54             944784         1296.2528    
    409000  -1281149       -255017.18      39722.252      1854.6936      162            108            54             944784         1306.632     
    410000  -1284460.2     -253558.38      39015.251      1208.3728      162            108            54             944784         1294.9736    
    411000  -1280846.9     -253920.19      39399.413      1007.7821      162            108            54             944784         1307.2317    
    412000  -1281028       -254586.67      39185.994      1749.2993      162            108            54             944784         1303.9877    
    413000  -1282823.5     -255519.11      39179.878      1009.6636      162            108            54             944784         1303.5151    
    414000  -1282151.9     -255480.95      39086.521      2130.9227      162            108            54             944784         1304.194     
    415000  -1282298.1     -254303.74      38920.933      1559.7934      162            108            54             944784         1303.3182    
    416000  -1284275.5     -255470.9       38731.867      1465.701       162            108            54             944784         1299.2198    
    417000  -1282041.8     -253742.71      39708.703      1227.3152      162            108            54             944784         1302.38      
    418000  -1282717.2     -253598.4       38855.779      1514.0012      162            108            54             944784         1303.4684    
    419000  -1281711.9     -253917.44      39181.991      1348.065       162            108            54             944784         1305.6149    
    420000  -1283816.8     -254373.21      39526.766      1323.406       162            108            54             944784         1295.163     
    421000  -1282974.4     -255257.47      38934.832      1707.4492      162            108            54             944784         1299.7526    
    422000  -1281995.2     -254695.43      39342.507      1885.4527      162            108            54             944784         1302.8534    
    423000  -1281426       -254240.16      39150.833      2171.5648      162            108            54             944784         1303.2081    
    424000  -1283240.8     -254523.71      39744.102      1730.5215      162            108            54             944784         1295.9583    
    425000  -1282761.7     -254611.29      39397.411      1557.893       162            108            54             944784         1297.4202    
    426000  -1283589.6     -254927.94      39290.477      1833.07        162            108            54             944784         1297.7219    
    427000  -1282335.6     -255252.1       39807.312      1193.8485      162            108            54             944784         1298.6184    
    428000  -1282967.5     -254772.19      39476.377      1652.7513      162            108            54             944784         1294.3239    
    429000  -1280711       -255730.97      39691.33       2224.9586      162            108            54             944784         1305.1298    
    430000  -1285271.1     -254871.26      39206.584      1128.3174      162            108            54             944784         1289.1448    
    431000  -1280813.7     -253482.6       39304.717      1855.0191      162            108            54             944784         1305.5398    
    432000  -1282287.5     -254294.38      39279.555      1465.7681      162            108            54             944784         1301.2842    
    433000  -1283151.9     -254159.71      39307.561      1596.7532      162            108            54             944784         1293.9542    
    434000  -1283243.8     -255516.45      39189.446      1483.2334      162            108            54             944784         1299.6999    
    435000  -1283569.5     -255404.16      39074.388      2022.2437      162            108            54             944784         1298.779     
    436000  -1282295.3     -254245.23      38877.547      1292.7466      162            108            54             944784         1306.6408    
    437000  -1280848.8     -254235.63      40391.636      1583.7592      162            108            54             944784         1301.9913    
    438000  -1282248.2     -253978.72      39468.6        1274.5723      162            108            54             944784         1298.5631    
    439000  -1282873.5     -254338.99      39571.804      2115.9351      162            108            54             944784         1297.4596    
    440000  -1282463       -255771.89      39698.842      1551.4296      162            108            54             944784         1299.7954    
    441000  -1282215.5     -254703.35      39257.901      1548.2362      162            108            54             944784         1302.8038    
    442000  -1283529.3     -254495.17      39839.754      1276.3853      162            108            54             944784         1298.9406    
    443000  -1280274.6     -253384.98      39481.284      1705.1995      162            108            54             944784         1310.3707    
    444000  -1283056.6     -253738.06      39697.763      1396.1245      162            108            54             944784         1295.6382    
    445000  -1281682.4     -254286.74      39604.623      2037.9986      162            108            54             944784         1305.089     
    446000  -1283020.5     -254248.43      39633.311      1370.2022      162            108            54             944784         1292.9481    
    447000  -1280838.2     -255078.83      39705.757      1662.8909      162            108            54             944784         1310.4984    
    448000  -1283061.5     -254898.2       39556.12       1382.4827      162            108            54             944784         1293.3884    
    449000  -1282357.9     -253641.8       39537.59       1420.2175      162            108            54             944784         1300.1199    
    450000  -1282578.2     -254065.77      40091.939      1496.908       162            108            54             944784         1292.6638    
    451000  -1282869.4     -254548.52      39489.826      1589.8931      162            108            54             944784         1296.6794    
    452000  -1281087.8     -254747.21      39651.175      2215.3849      162            108            54             944784         1306.0901    
    453000  -1283630.5     -254123.71      39083.348      1155.2812      162            108            54             944784         1297.8618    
    454000  -1282334.9     -254212.14      39373.214      1786.3176      162            108            54             944784         1296.8335    
[...]
   1724000  -1495475.5     -329179.9       20128.82      -427.50692      162            108            54             944784         659.21278    
   1725000  -1496724.9     -329028.42      19767.955     -345.37604      162            108            54             944784         654.83145    
   1726000  -1495475.7     -328884.66      19888.209     -486.37765      162            108            54             944784         662.04892    
   1727000  -1496302.3     -327844         19819.434     -739.22931      162            108            54             944784         655.71375    
   1728000  -1497534.4     -328843.59      19787.736     -487.74628      162            108            54             944784         656.21837    
   1729000  -1497192       -329136.12      19768.585     -779.79482      162            108            54             944784         655.7664     
   1730000  -1497558.5     -328881.17      19755.591     -595.65082      162            108            54             944784         654.18194    
   1731000  -1496883       -329205.88      19836.606     -263.62376      162            108            54             944784         655.84224    
   1732000  -1498141.1     -330020.94      19923.498     -483.60351      162            108            54             944784         651.84614    
   1733000  -1498744.7     -329443.34      19777.027     -456.89814      162            108            54             944784         650.5375     
   1734000  -1499396.8     -330024.29      19503.729     -284.91831      162            108            54             944784         648.13839    
   1735000  -1498975.9     -330404.61      19425.695     -558.92596      162            108            54             944784         651.71168    
   1736000  -1498496.3     -330047.03      19776.352      108.0874       162            108            54             944784         649.93756    
   1737000  -1499552.5     -330632.9       19611.648     -589.94988      162            108            54             944784         647.61755    
   1738000  -1498570.5     -329793.57      19599.357     -657.24536      162            108            54             944784         651.22047    
   1739000  -1499424.2     -329263.57      19528.4       -606.76961      162            108            54             944784         647.07917    
   1740000  -1499383.1     -329834.52      19619.901     -846.04647      162            108            54             944784         647.39066    
   1741000  -1499203.2     -330094.82      19840.688     -378.59137      162            108            54             944784         649.63646    
   1742000  -1500093.6     -330857.81      19487.354     -362.70779      162            108            54             944784         648.48288    
   1743000  -1501150.8     -330947.02      19551.211     -469.00329      162            108            54             944784         638.9778     
   1744000  -1500446.4     -329431.95      19286.739     -629.8299       162            108            54             944784         646.02086    
   1745000  -1501140.3     -331037.42      19477.347     -328.27065      162            108            54             944784         642.55084    
   1746000  -1501579.5     -331786.85      19436.897     -380.65511      162            108            54             944784         644.75981    
   1747000  -1501598.2     -330849.1       19377.914     -108.75895      162            108            54             944784         641.45519    
   1748000  -1501576       -332330.94      19134.611     -415.96611      162            108            54             944784         643.33679    
   1749000  -1502826.9     -331773.32      19254.453     -514.25359      162            108            54             944784         636.78962    
   1750000  -1502774.3     -331356.83      19363.167     -352.62326      162            108            54             944784         637.47237    
   1751000  -1502669       -331515.57      19248.64      -528.27369      162            108            54             944784         638.79703    
   1752000  -1502861.1     -331242         19268.679     -524.89143      162            108            54             944784         640.71282    
   1753000  -1502589.7     -330587.32      19002.488     -301.01783      162            108            54             944784         638.57002    
   1754000  -1504095.3     -331884.58      19355.203     -723.93155      162            108            54             944784         637.22092    
   1755000  -1503695.6     -331238.24      19035.919     -251.82392      162            108            54             944784         637.71387    
   1756000  -1504581.8     -332112.81      18945.657     -837.04817      162            108            54             944784         633.85508    
   1757000  -1505572.7     -332821.89      19164.123     -251.76529      162            108            54             944784         632.01054    
   1758000  -1504879.3     -332693.33      18980.839     -412.8615       162            108            54             944784         636.25537    
   1759000  -1505246.9     -333240.26      19237.726     -680.33929      162            108            54             944784         634.40551    
   1760000  -1505894.8     -332830.54      19087.672     -18.969523      162            108            54             944784         627.80005    
   1761000  -1504903.1     -332826.61      18930.324     -667.80296      162            108            54             944784         637.81647    
   1762000  -1506234.7     -332772.57      19008.487     -794.96953      162            108            54             944784         632.51326    
   1763000  -1505654.7     -332680.06      19127.285     -321.14637      162            108            54             944784         630.55867    
   1764000  -1506105.3     -332704.18      18967.597     -442.43907      162            108            54             944784         631.48764    
   1765000  -1506493.2     -333851.29      18876.826     -561.24591      162            108            54             944784         629.95672    
   1766000  -1506936       -333496.32      18857.419     -472.83497      162            108            54             944784         630.21567    
   1767000  -1508097.4     -333908.78      18765.277     -322.55075      162            108            54             944784         627.16936    
   1768000  -1507406.8     -334043.21      18889.273     -347.23973      162            108            54             944784         628.37484    
   1769000  -1508425.6     -334739.31      18817.36      -256.13009      162            108            54             944784         627.18251    
   1770000  -1507687.4     -334871.19      18888.908     -213.0191       162            108            54             944784         630.60727    
   1771000  -1509095.7     -334271.87      18702.718     -271.6162       162            108            54             944784         622.4257     
   1772000  -1508934.8     -335127.25      18759.823     -487.96415      162            108            54             944784         625.07972    
   1773000  -1509646.6     -334760.54      18731.709     -894.851        162            108            54             944784         621.56695    
   1774000  -1509423.4     -334954.41      18774.815     -82.789085      162            108            54             944784         621.6243     
   1775000  -1510313.5     -334863.6       18752.955     -322.33343      162            108            54             944784         619.51194    
   1776000  -1509423       -334852.38      18535.484     -575.46343      162            108            54             944784         623.43477    
   1777000  -1510299.4     -335478.14      18377.183     -270.94538      162            108            54             944784         621.98223    
   1778000  -1509685.1     -334855.11      18654.745     -254.7558       162            108            54             944784         620.29144    
   1779000  -1510864.1     -335470.72      18625.576     -657.73097      162            108            54             944784         616.77554    
   1780000  -1510998.8     -335759.57      18824.564     -223.10148      162            108            54             944784         615.59923    
   1781000  -1511243.6     -335239.56      18255.272     -102.13773      162            108            54             944784         617.99481    
   1782000  -1510915.8     -334866.45      18473.756     -905.80244      162            108            54             944784         618.36662    
   1783000  -1511652       -334937.36      18396.152     -229.81476      162            108            54             944784         615.33443    
   1784000  -1511431.3     -334842.67      18454.233     -222.11387      162            108            54             944784         615.49176    
   1785000  -1512666.5     -334701.74      18404.201     -825.67373      162            108            54             944784         611.02843    
   1786000  -1512103.7     -334988.21      18292.899     -680.81371      162            108            54             944784         614.52157    
   1787000  -1512716.6     -335841.3       18402.186     -375.15037      162            108            54             944784         610.98146    
   1788000  -1513615.1     -335116.6       18131.002     -754.98659      162            108            54             944784         609.19473    
   1789000  -1512781.2     -336431.47      18532.237     -264.47938      162            108            54             944784         610.73836    
   1790000  -1513100.1     -336181.13      18349.048     -680.4184       162            108            54             944784         610.84326    
   1791000  -1513592.6     -336066.12      18543.88      -301.31312      162            108            54             944784         610.73678    
   1792000  -1514674.3     -336451.96      18208.439     -277.46724      162            108            54             944784         605.98413    
   1793000  -1513458.4     -336737.01      18381.854     -987.94847      162            108            54             944784         612.55469    
   1794000  -1514770.4     -336710.56      18275.643     -236.05379      162            108            54             944784         607.79817    
   1795000  -1515190.6     -336759.86      18273.761     -495.69881      162            108            54             944784         605.49286    
   1796000  -1514959.2     -336766.78      18223.984     -398.91558      162            108            54             944784         608.23099    
   1797000  -1514649.3     -336955.12      18378.614     -430.90141      162            108            54             944784         608.752      
   1798000  -1515567.5     -336335.36      18275.305     -690.15621      162            108            54             944784         602.62873    
   1799000  -1516990.4     -337539.23      17882.543     -398.98137      162            108            54             944784         603.19819    
   1800000  -1515934.6     -336820.28      18340.089     -594.80941      162            108            54             944784         605.51783    
   1801000  -1516472.8     -338430.6       18315.279     -448.96001      162            108            54             944784         603.3041     
   1802000  -1517022.2     -338725.48      18171.222     -257.52189      162            108            54             944784         600.56179    
   1803000  -1517403.6     -338104.92      17926.16      -615.66248      162            108            54             944784         606.51661    
   1804000  -1518131       -338512         18074.658     -214.99491      162            108            54             944784         599.3289     
   1805000  -1517514.7     -339084.67      18114.813     -475.89865      162            108            54             944784         600.80333    
   1806000  -1517193.5     -337789.15      18053.089     -907.43753      162            108            54             944784         602.28801    
   1807000  -1518093       -337762.57      18296.57      -421.23664      162            108            54             944784         598.33421    
   1808000  -1518015.2     -338921.45      18467.345     -86.415859      162            108            54             944784         598.35842    
   1809000  -1518736.1     -338737.69      18031.955     -628.87575      162            108            54             944784         598.85463    
   1810000  -1518915.7     -338666.33      17999.615     -552.63261      162            108            54             944784         595.33501    
   1811000  -1519601.2     -339201.73      18002.614     -132.1322       162            108            54             944784         597.10065    
   1812000  -1519537.6     -338638.88      18115.935     -845.56346      162            108            54             944784         596.65076    
   1813000  -1519640.5     -338754.58      18018.799     -736.34302      162            108            54             944784         597.02178    
   1814000  -1520043.8     -339154.24      17934.714     -262.09776      162            108            54             944784         594.34871    
   1815000  -1520258.1     -339552.24      17795.776     -249.76389      162            108            54             944784         595.74719    
   1816000  -1519393.9     -339406.21      17946.208     -566.77736      162            108            54             944784         593.58303    
   1817000  -1520947.3     -339823.61      18023.944     -445.36198      162            108            54             944784         589.5477     
   1818000  -1521510.3     -340552.86      17828.239     -142.52421      162            108            54             944784         588.88208    
   1819000  -1521625.4     -340527.35      17700.974     -158.83462      162            108            54             944784         591.02049    
   1820000  -1521411.7     -340508.51      17823.951     -403.55996      162            108            54             944784         591.07936    
   1821000  -1521984.7     -340417.06      17818.792     -554.91081      162            108            54             944784         585.91717    
   1822000  -1522499.6     -340224.48      17871.898      41.948445      162            108            54             944784         585.81695    
   1823000  -1522799.9     -340608.37      17911.514     -576.05322      162            108            54             944784         585.29141    
   1824000  -1521440.6     -340516.98      17796.467     -545.59407      162            108            54             944784         588.75039    
   1825000  -1522896.4     -340568.08      17408.789     -112.15093      162            108            54             944784         588.50254    
   1826000  -1522273.3     -341001.63      17561.191     -240.27675      162            108            54             944784         588.627      
   1827000  -1524010.8     -341692.66      17560.453     -421.39218      162            108            54             944784         583.88107    
   1828000  -1524427.3     -341801.61      17415.937     -338.33329      162            108            54             944784         582.74093    
   1829000  -1524248.3     -340347.36      17254.222     -540.25353      162            108            54             944784         584.46634    
   1830000  -1524550       -342273.71      17611.196     -334.75259      162            108            54             944784         583.67911    
Loop time of 140243 on 2 procs for 1000000 steps with 50400 atoms

Performance: 0.616 ns/day, 38.957 hours/ns, 7.130 timesteps/s, 359.375 katom-step/s
99.7% CPU use with 2 MPI tasks x no OpenMP threads

MPI task timing breakdown:
Section |  min time  |  avg time  |  max time  |%varavg| %total
---------------------------------------------------------------
Pair    | 1.0282e+05 | 1.0787e+05 | 1.1291e+05 |1536.6 | 76.91
Bond    | 1582.1     | 1646.7     | 1711.4     | 159.3 |  1.17
Kspace  | 18448      | 23348      | 28248      |3206.6 | 16.65
Neigh   | 5240.9     | 5241.9     | 5242.9     |   1.4 |  3.74
Comm    | 481.51     | 696.69     | 911.88     | 815.3 |  0.50
Output  | 817.55     | 817.56     | 817.57     |   0.0 |  0.58
Modify  | 436.57     | 451.03     | 465.48     |  68.1 |  0.32
Other   |            | 176.2      |            |       |  0.13

Nlocal:          25200 ave       29574 max       20826 min
Histogram: 1 0 0 0 0 0 0 0 0 1
Nghost:        33113.5 ave       37130 max       29097 min
Histogram: 1 0 0 0 0 0 0 0 0 1
Neighs:    7.36069e+06 ave 8.81732e+06 max 5.90407e+06 min
Histogram: 1 0 0 0 0 0 0 0 0 1

Total # of neighbors = 14721387
Ave neighs/atom = 292.09101
Ave special neighs/atom = 2.4
Neighbor list builds = 34229
Dangerous builds = 0




##### Calculo de viscosidad
#variable 	pxy equal pxy
#fix		aveStress all ave/correlate 10 100 1000 v_pxy type auto
#variable 	visc equal (vol/v_boltzmann*temp)*trap(f_aveStress[1])
#fix		impVisc all print 1000 "temp: ${temp} viscosity: ${visc}" file viscTemp.data screen no

##### Calculo tensión superficial
## Para este cálculo es necesario utilizar el tensor de presión, por lo que es necesario calcularlo.

#replicate	1 1 2
#compute 	pressTensor all pressure NULL
#variable	press equal pzz-0.5*(pxx+pyy)
#fix 		avePress all ave/time 10 100 1000 v_press
#variable	surfaceTension equal 0.5*lz*f_avePress
#fix		impSurfaceTemp all print 1000 "temp: ${temp} surface_tension: ${surfaceTension}" file surfaceTemp.data screen no

#####Calculo de la conductividad térmica

#compute		heat_flux all heat/flux ke pe Stress
#fix		heat_flux_corr all ave/correlate 10 100 1000 c_heat_flux[*] type auto
#variable 	thermal_conductivity equal (1/(3*v_boltzmann*vol*temp))*trap(f_heat_flux_corr[1])
#fix		impThemalCond all print 1000 "temp: ${temp} thermal_conductivity: ${thermal_conductivity}" file thermalCond_temp.data screen no

#### Calculo del coeficiente de difusión.
## Basado en el ejemplo de LAMMPS, utilizando el MSD.

#variable 	parPuntos equal c_msd[4]/4/(step*dt+1.0e-6)
#fix		vectorParOrdenado all vector 10 c_msd[4]
#variable 	diffCoeff equal slope(f_vectorParOrdenado)/4/(10*dt)

#fix 		impDiffCoeff all print 1000 "time: ${time} diffusion_coefficient: ${diffCoeff}" file diffCoeff.data screen no

#fix             nvt all nvt temp 293 293 $(100*dt)
#run             100000
#unfix nvt

#fix             npt all npt iso 0 0 $(1000*dt) temp 293 1300 $(100*dt)
#run             300000
#unfix           npt

#fix             nvt all nvt temp 1300 1300 $(100*dt)

#run             500000
#unfix nvt

#fix             npt all npt iso 0 0 $(1000*dt) temp 1300 583 $(100*dt)
#run             1000000
#unfix           npt

#Se exportan en el siguiente orden para que funcione con la función de imprimir RDF en python.

#compute          myRDF all rdf 1000 1 1 1 3 1 2 3 3 2 3 2 2 cutoff 11.0
#fix             ave all ave/time 10 100 10000  c_myRDF[*] file rdf.yml mode vector

#fix             nvt all nvt temp 583 583 $(100*dt)
#run             500000
#unfix nvt

write_data data_buck_EQ.data
System init for write_data ...
PPPM initialization ...
  using 12-bit tables for long-range coulomb (../kspace.cpp:342)
  G vector (1/distance) = 0.24196708
  grid = 72 50 30
  stencil order = 5
  estimated absolute RMS force accuracy = 0.034752741
  estimated relative force accuracy = 0.00010465685
  using double precision KISS FFT
  3d grid and FFT values/proc = 83435 54000
Generated 0 of 3 mixed pair_coeff terms from geometric mixing rule
WARNING: Not all mixed pair coeffs generated from mixing. Use write_data with 'pair ij' option to store all pair coeffs. (../write_data.cpp:368)

Total wall time: 69:51:56
