LAMMPS data file via write_data, version 17 Apr 2024, timestep = 30000, units = metal

2221 atoms
4 atom types
1035 bonds
1 bond types
1035 angles
1 angle types
345 impropers
1 improper types

-3.377724 31.622276 xlo xhi
-4.066 40.934 ylo yhi
-0.00027027649286281985 33.64427027649221 zlo zhi

Masses

1 12.0107
2 12.0107
3 12.0107
4 12.0107

Bond Coeffs # harmonic

1 525 1.2676

Angle Coeffs # harmonic

1 105 120

Improper Coeffs # harmonic

1 60 0

Atoms # full

16 268 3 -0.65 3.775078639467714 1.6190899630501752 5.440879232600522 0 0 0
18 268 2 0.95 3.3748558156155903 2.7513049664462668 5.043243010720719 0 0 0
19 268 3 -0.65 2.540785309498743 2.849446771388388 4.097739536767786 0 0 0
121 91 1 1 0.6471490638081392 4.6050456490537535 4.483211844664338 0 0 1
1080 72 2 0.95 -0.5111852532869573 2.7813796834437254 0.7902418918752419 1 1 0
31 1155 4 0 2.5145781246832337 3.4636722840340877 10.565150348588881 0 0 0
36 1158 4 0 5.0717819181983845 2.3748626830020685 10.904762129650205 0 0 0
33 1156 4 0 3.485626209289595 4.217212561539092 11.332510538688263 0 0 0
30 1157 4 0 6.341348967875777 1.959635610750464 11.252003153375037 0 0 0
35 1160 4 0 5.785449224235303 4.284861054577309 12.33764814852571 0 0 0
34 1159 4 0 4.793796826984917 3.6687892373830606 11.460688859660662 0 0 0
45 1209 4 0 5.4012924071347355 5.613289827249623 12.737710230560001 0 0 0
32 1154 4 0 2.838796212725233 2.3513263701922273 9.790908289047287 0 0 0
29 1153 4 0 4.062532115723061 1.7431743149587948 10.123183487461093 0 0 0
24 1146 3 -0.65 2.268695519496046 6.3548555979227626 8.166564546302979 2 1 1
1102 879 1 1 2.2274666050760956 2.594708979633346 1.6608933315390089 -1 0 1
13 1146 2 0.95 1.2427699215848391 6.110478893046422 7.469601927954038 2 1 1
20 1146 3 -0.65 1.1764476642394595 5.092906372720514 6.714070183231332 2 1 1
99 178 3 -0.65 12.666433056726632 3.301700777664355 0.8951421885767613 -1 0 0
1099 1133 1 1 -2.977296489501024 4.563675545440556 1.2540087215358828 2 0 2
43 1205 4 0 3.0978860454246595 5.498259271442083 11.784332348536148 0 0 0
53 784 3 -0.65 4.339909840284605 6.506440492803458 3.861783322202445 -1 1 1
2 784 2 0.95 3.204635618902465 6.465385993314046 4.418095967047207 -1 1 1
1213 507 1 1 -1.92163873495102 6.730033120721386 6.7793259656260725 1 1 0
4 784 3 -0.65 2.168262295231878 6.2507162234308495 3.7212967309590432 -1 1 1
1081 72 3 -0.65 0.16603217559149858 3.2400666495844725 1.7600481382561444 1 1 0
1640 298 3 -0.65 12.215847130216442 17.530426649965026 3.7253605436491872 -1 0 -1
17 268 3 -0.65 3.8303581034477796 3.793760706129382 5.602691378917863 0 0 0
10 205 1 1 4.120361997566295 5.000348396096485 7.707499241416537 2 0 0
48 1210 4 0 4.079878038706969 6.229536794204338 12.613977642287685 0 0 0
44 1206 4 0 1.8178790777543805 6.124010891598707 11.622006046874983 0 0 0
5 784 3 -0.65 3.1191458487789805 6.665810373604769 5.665840759550115 -1 1 1
823 564 3 -0.65 10.882026751420316 16.42224773413336 0.13293703991721062 1 0 0
65 883 1 1 5.145779029930322 0.41853995220708123 6.694958905719325 0 0 1
8 14 3 -0.65 4.181468529790602 4.176869477539919 1.0679959224828992 0 0 0
77 118 3 -0.65 6.428729961663042 2.2428022266763032 6.416878830290717 1 0 1
228 760 3 -0.65 13.247690291266554 7.2417556024222804 9.904320469744532 -1 1 1
9 14 2 0.95 5.349483464204734 4.594343650046531 0.8641609569821207 0 0 0
414 1317 4 0 6.011030998826649 13.658075220619239 16.354382108451926 0 0 0
1113 1112 3 -0.65 -1.4673623016299897 5.1186769369646585 4.200740492732847 0 1 1
51 1214 4 0 6.365991311086229 6.282956645396785 13.48697830082411 0 0 0
12 14 3 -0.65 6.22884696220169 4.500791165208025 1.7588482504755238 0 0 0
37 1163 4 0 7.005132804735147 3.6587684112448833 12.628103063188913 0 0 0
38 1162 4 0 7.241567975440683 2.332643720163768 12.216108347752538 0 0 0
59 964 3 -0.65 7.651481424352632 6.2839799365082385 9.329405919572459 0 0 1
58 964 2 0.95 7.685368582827705 7.289351889566726 10.062029523975868 0 0 1
39 1164 4 0 7.936029574663017 4.3526399642463165 13.44101875723772 0 0 0
52 1213 4 0 7.632700948133745 5.6846613247989914 13.760078912039967 0 0 0
21 118 3 -0.65 6.609249376703693 4.430337244776049 6.563656619433724 1 0 1
40 1161 4 0 8.341154482324157 1.6071665024754669 12.719373421280288 0 0 0
1 21 1 1 5.721151182189854 4.695185458543456 4.10235532344722 0 0 -1
6 531 1 1 11.72225081833714 5.145501294317182 5.024041234592761 0 -1 0
63 118 3 -0.65 6.328588389678407 3.2344555776498205 8.377647425506655 1 0 1
66 118 2 0.95 6.458925897866207 3.298851863826495 7.116355134584181 1 0 1
78 322 3 -0.65 9.613206582841764 5.2870008024652355 4.48788121939936 0 0 1
98 178 2 0.95 12.100699195962154 4.365066935353191 1.3159128148315058 -1 0 0
102 995 1 1 8.1156343263785 3.5120556148420055 9.93604988039376 1 1 1
97 178 3 -0.65 12.392183728263221 4.827170121381472 2.4549507234771086 -1 0 0
185 778 2 0.95 10.923626116357633 4.0852117254118525 7.780685202207753 0 0 0
203 778 3 -0.65 11.338368014108417 5.244107264095628 8.005787619054367 0 0 0
200 778 3 -0.65 11.692211632848835 3.2354018758796594 7.228260863192708 0 0 0
117 1171 4 0 11.526385777374294 3.910643575042703 14.6310078434871 0 0 0
79 1167 4 0 9.140530421580186 3.71798319193995 13.797156900549671 0 0 0
111 1166 4 0 9.36188447793514 2.3252987613084284 13.43785457461364 0 0 0
114 1165 4 0 10.623347469721573 1.892813876638765 13.787383209628223 0 0 0
113 1168 4 0 10.168776555386936 4.5175814707895965 14.349666195766497 0 0 0
116 1170 4 0 11.800701408697579 2.5236857523146523 14.391873086356208 0 0 0
112 1217 4 0 9.942705311296109 5.935070236502431 14.65639957367613 0 0 0
186 1172 4 0 12.632653359702013 4.745600909601781 15.120336004767312 0 0 0
174 1221 4 0 12.377790130001936 6.186940366300935 15.249751063132587 0 0 0
105 1169 4 0 13.103916249696313 2.0266558410722113 14.613503172197797 0 0 0
339 1175 4 0 13.906634436996459 4.145996255152353 15.414970276761327 0 0 0
815 68 3 -0.65 3.373799488008389 15.428812673596912 0.4130578225166066 1 0 -1
64 778 3 -0.65 9.721021045771318 3.771002846997287 8.011104580395452 0 0 0
189 606 2 0.95 10.94729540589191 3.956778927869927 10.9769736366151 1 -1 0
199 606 3 -0.65 9.712793244214472 4.169131116794415 11.111249875143535 1 -1 0
1636 298 2 0.95 11.466553300724646 18.056642425580325 4.612227874971449 -1 0 -1
69 322 2 0.95 8.627692181835593 5.8530631323587725 3.8993054603249404 0 0 1
81 322 3 -0.65 7.87600209746122 6.595041614386528 4.559712342214014 0 0 1
120 606 3 -0.65 11.339046111162341 2.937276109753578 10.332640909973874 1 -1 0
188 606 3 -0.65 11.805921700792199 4.755309075140154 11.45498702638566 1 -1 0
82 322 3 -0.65 8.449390689540524 5.67338707968981 2.6491138888662653 0 0 1
61 964 3 -0.65 6.659422177050754 7.615674202916573 10.746851367694832 0 0 1
1124 11 1 1 12.500176923363705 1.758412273734455 8.541140680616941 1 -1 -1
108 1218 4 0 8.643913250901704 6.521073112674416 14.366076591485747 0 0 0
347 1226 4 0 13.414784700103326 6.948718446081336 15.83235530462556 0 0 0
85 15 1 1 11.116880407461084 6.74282091527637 9.828598506877483 -1 0 0
110 1222 4 0 11.055779594251074 6.694540592162303 15.052904996760759 0 0 0
234 315 1 1 8.2183380379384 6.513281060904683 6.981713443991685 0 0 0
1069 178 3 -0.65 11.230289731450698 4.933286470620783 0.5944600434785993 -1 0 0
60 239 1 1 8.354417492435177 5.119860917459182 0.5148551424778341 1 1 1
454 108 3 -0.65 13.413386844476923 11.398770645994242 0.6439431590533888 0 0 0
233 776 3 -0.65 12.670943053426234 8.465617425375326 2.693015583783076 1 0 1
236 639 1 1 12.951125332786686 6.756907301960943 12.532386221904117 -1 0 1
1148 410 3 -0.65 13.190851369902406 14.678210195230905 2.598843854372312 0 0 1
14 1146 3 -0.65 0.25636220262145615 6.9151857559914784 7.500596798596108 2 1 1
614 774 3 -0.65 13.611122162904543 18.060051559838907 10.487766621764552 0 0 1
551 748 3 -0.65 4.062211604276241 17.43612925143762 3.7167815679364034 0 0 1
217 776 2 0.95 13.504702007891742 7.721610148765725 3.3053130259572185 1 0 1
144 490 2 0.95 13.320126517672644 11.530061074271202 6.039454875731119 0 -1 0
352 1058 3 -0.65 5.09077365595763 9.429336027713616 2.4165795638701737 1 1 0
355 1312 4 0 0.5476634855278171 15.758926695322314 16.683117685326387 0 0 0
220 114 3 -0.65 13.97697927355083 15.838271934760838 5.739789289329748 0 0 1
210 518 2 0.95 2.279118399105242 12.699245770651808 1.5376121627700419 0 1 1
47 1211 4 0 3.7912669673781454 7.555042850422166 13.035744192969593 0 0 0
42 1207 4 0 1.5652333492409138 7.379653092638203 12.103870562631059 0 0 0
159 63 1 1 -0.46247065061788184 16.63696636147434 6.293287515599414 0 0 0
164 1038 3 -0.65 3.5804388405370156 15.819285158211846 12.701770423044414 1 1 2
166 1257 4 0 2.239044396906681 9.4296779230452 13.188366185866943 0 0 0
547 615 1 1 4.230026369616891 17.125398946800416 6.036388709154486 1 -1 2
143 608 3 -0.65 -0.5325275762894657 17.404770216016274 3.06690504214381 -1 -1 0
416 1272 4 0 8.719416192259018 12.71676374482772 16.39848578214339 0 0 0
160 1038 2 0.95 2.4403455418168107 15.966441178901974 12.225126568989957 1 1 2
162 408 3 -0.65 1.0987569005771467 10.200747626453248 3.3828274770707023 0 1 1
56 771 1 1 2.894523962092128 9.675147978701688 7.3534007445253655 1 0 1
148 1022 3 -0.65 1.9795502666526383 14.40253197997806 8.708266164399786 0 0 1
128 183 1 1 -0.9655413063448277 10.032664746506004 8.402813130906969 1 -1 1
130 198 2 0.95 -0.8816247274207175 13.75760987968567 7.6211450345413665 0 1 0
131 162 3 -0.65 1.618653657286308 12.214521821339375 9.934746566892983 0 0 0
133 162 2 0.95 1.942546814410821 11.062348928734016 9.56288474863956 0 0 0
134 198 3 -0.65 -0.831561911905418 12.517956163646378 7.878102721994387 0 1 0
135 162 3 -0.65 3.125286845120728 10.617389235680186 9.732679183877352 0 0 0
138 162 3 -0.65 1.0826498317864035 10.3398701238934 8.951460729223234 0 0 0
139 198 3 -0.65 -1.509595918591546 14.54450118378516 8.408078627274037 0 1 0
141 198 3 -0.65 -0.32795331160155905 14.224067787239173 6.593060254124077 0 1 0
142 335 1 1 3.229748751204984 13.648086429970432 10.554900738472513 -1 0 -1
154 975 1 1 2.7935962933599443 13.107649514024141 6.01100389424979 0 1 0
145 1022 2 0.95 1.9163231736993251 15.415318894370985 7.947623657954938 0 0 1
1258 849 1 1 -0.23352856002816705 13.634115083907268 10.425258854954905 1 0 2
1212 350 2 0.95 -2.7769169477754962 12.140364553601772 10.075014466966897 0 -1 0
157 408 2 0.95 1.3035872304163798 10.716450764421266 4.53680535886053 0 1 1
373 608 2 0.95 0.38924228132462513 16.549912898962123 3.1727383010530286 -1 -1 0
161 408 3 -0.65 1.1367133284023014 11.950200149292291 4.72938283043062 0 1 1
158 408 3 -0.65 1.6725821316641365 9.976719525358376 5.501314729543256 0 1 1
182 1038 3 -0.65 1.7985858673305628 14.939261874374607 11.825009377213668 1 1 2
366 608 3 -0.65 1.3199767172060066 16.48501430851187 2.2886393704052033 -1 -1 0
151 1038 3 -0.65 1.9717140302829663 17.107811113289333 12.010909651234746 1 1 2
169 1262 4 0 3.257913359141023 10.182070399951602 13.945918006128231 0 0 0
1101 142 2 0.95 -1.7424903585163838 9.442486895847564 5.389674599148842 2 0 1
1093 142 3 -0.65 -1.4356745982040684 8.677534282292752 4.4357928494924845 2 0 1
395 608 3 -0.65 0.36313280427642103 15.734079015911794 4.150827476157389 -1 -1 0
46 1212 4 0 4.823062299601255 8.202479788780272 13.744160211130032 0 0 0
41 1208 4 0 2.5049244850948593 8.127566456773994 12.80094947737516 0 0 0
173 1266 4 0 5.464776653428321 10.215644969006428 15.022259161559118 0 0 0
172 1261 4 0 4.504938339774415 9.581571720865226 14.289437672347107 0 0 0
193 1022 3 -0.65 1.253960903576479 16.43849024023743 8.292507761381518 0 0 1
146 1022 3 -0.65 2.6013649778003156 15.438046020347246 6.8868948820035145 0 0 1
540 1267 4 0 5.2348127981487265 11.597652982972402 15.389121929061105 0 0 0
239 594 3 -0.65 4.55552257162338 14.62329575554971 4.917783397650892 2 -1 1
1233 350 3 -0.65 -2.208164524189822 13.03337357675418 10.738294280925567 0 -1 0
168 1259 4 0 0.7203497080816397 11.448195606332025 13.430093399511286 0 0 0
171 1263 4 0 2.9493640405316826 11.524437722713254 14.462103246547093 0 0 0
499 1264 4 0 3.9603734174925203 12.267289414530321 15.082028196877829 0 0 0
165 1258 4 0 1.100520454564475 10.241715619977294 12.907423707802922 0 0 0
541 1260 4 0 1.5737148129978054 12.073293574771403 14.434505590684516 0 0 0
536 1309 4 0 1.248299991961124 13.29377626133665 15.147280651965627 0 0 0
55 1174 4 0 14.109920210085493 2.7734771700404246 15.286693039895635 0 0 0
122 234 3 -0.65 0.5333829212855845 7.820771973449597 1.2211578070064588 1 -1 0
484 908 3 -0.65 5.672027993638014 12.936130959876884 0.45298683365850595 0 1 0
237 485 1 1 0.35740133754175485 8.019141995653165 3.318210980989637 -1 1 0
140 113 1 1 -1.02192662488542 12.782072591217153 4.372598317211505 1 0 -1
70 1058 3 -0.65 3.573289095097348 8.59880017347606 1.119063483196947 1 1 0
1088 142 3 -0.65 -1.538044264249573 9.081269879366328 6.596194026880482 2 0 1
475 727 1 1 3.3771168888305616 15.60884835308854 2.7028278347750274 -2 0 2
208 30 3 -0.65 4.254844479308339 11.172471660028835 5.582300390138052 0 1 1
534 1310 4 0 -0.04991552971974408 13.799893813725268 15.305907757651024 0 0 0
425 1313 4 0 3.5692275870428696 13.483507054103875 15.729202575686847 0 0 0
1603 347 1 1 -0.7264246925284906 11.70059200913793 0.31505620253914274 1 0 0
532 1314 4 0 2.2764786903304017 14.01927935051015 15.831586797688411 0 0 0
91 868 3 -0.65 7.276246531124663 8.187572630224851 0.3999524519494768 1 1 1
2074 701 1 1 -0.5100181495884667 17.821380350770973 0.30428058725556395 0 0 -1
1082 72 3 -0.65 -1.7647521873582317 2.7236782530693686 0.8922698040895196 1 1 0
212 518 3 -0.65 2.868081056972197 13.361319130523533 2.457066014031584 0 1 1
214 518 3 -0.65 1.2251363380136508 13.169424755601758 0.9772495960135515 0 1 1
1638 298 3 -0.65 10.669000494540064 17.302304149820916 5.268102477123607 -1 0 -1
156 963 1 1 5.062496435796581 9.571550130811767 10.950561678112635 -1 -1 0
1238 350 3 -0.65 -2.428975361056593 10.926167769654112 10.223614577759138 0 -1 0
72 1058 2 0.95 4.6521055224725245 9.203317880040899 1.2520577131030572 1 1 0
806 68 3 -0.65 5.142829488650481 16.668525913777074 0.12867304269192212 1 0 -1
824 564 2 0.95 9.872839680442759 15.70120475326491 0.24771101011352628 1 0 0
1189 910 3 -0.65 13.555481776986037 14.057152037026352 12.0364377523834 0 -1 1
211 30 2 0.95 4.996417118674442 11.688930816068934 6.447711218060653 0 1 1
190 30 3 -0.65 6.233391875072855 11.451591538701605 6.457600267016848 0 1 1
254 518 3 -0.65 2.730179355613233 11.566523300778394 1.1722135246914824 0 1 1
825 564 3 -0.65 9.883973172801497 14.639217259204324 0.9412324247343076 1 0 0
163 1074 3 -0.65 8.362680777277426 14.405543040540204 8.53104820895979 0 0 0
632 120 3 -0.65 6.762204890199197 17.481854885113396 6.648438797660859 0 0 0
255 1074 2 0.95 9.499813052420354 13.883358121614048 8.799963716414231 0 0 0
351 1058 3 -0.65 5.299874082427012 9.59795452559738 0.2504341029661885 1 1 0
814 31 1 1 4.7097939426319915 11.81546829274081 2.614566439263744 0 0 0
413 1311 4 0 -0.40984863812337485 14.959953752550646 15.977650843500388 0 0 0
430 108 2 0.95 12.36440665795013 10.909415431310064 0.10390600426604302 0 0 0
415 1318 4 0 4.631331640595027 14.270555469629004 16.370556123111733 0 0 0
1226 142 3 -0.65 -2.3145738295199227 10.56434979148631 5.130133782673502 2 0 1
226 114 2 0.95 13.67348905476242 16.81136677009254 6.47360701749753 0 0 1
80 964 3 -0.65 8.727082663205657 8.0134255662119 10.127758945625898 0 0 1
863 446 3 -0.65 8.952449252320424 17.061536918024686 2.4564918967389184 0 0 0
23 234 3 -0.65 -1.2248548235990289 9.128667162388126 1.0331283193895315 1 -1 0
250 380 3 -0.65 9.912075033716079 9.767824533679002 8.222174218191817 1 1 -1
455 1275 4 0 10.043921814015377 12.202745611939418 16.409397883661565 0 0 0
1607 534 3 -0.65 -2.5944197297275933 14.414129581048869 4.546729404682439 1 0 0
50 1215 4 0 6.011269694246631 7.5810327861277615 14.02639604152964 0 0 0
198 594 3 -0.65 5.866925927985627 14.42511862704671 3.1537292286898326 2 -1 1
240 594 2 0.95 5.695417470800412 14.667258210896055 4.399839831910723 2 -1 1
1708 910 3 -0.65 13.673282339396502 14.204919645296279 9.853925239175659 0 -1 1
216 108 3 -0.65 11.439682663927718 10.431769177410823 0.8362820561781773 0 0 0
600 774 2 0.95 13.969548784149142 17.822604663084356 11.673437326372122 0 0 1
136 844 3 -0.65 4.829411083022129 8.55133779644543 7.770130655114547 1 0 0
25 215 1 1 2.456037425061802 6.418156147072552 0.6245717603513347 1 0 0
147 685 1 1 5.899881220260005 15.555736435128038 12.625858892202846 1 -1 1
227 760 2 0.95 14.0140434601739 8.114404205539413 9.407244988652902 -1 1 1
294 735 1 1 -3.2924006723656456 9.194714310796606 1.250807897097541 0 0 0
129 844 2 0.95 6.093403150994689 8.711176092402145 7.896038917577533 1 0 0
201 467 1 1 11.290583466612523 7.832344867103325 0.88382990914407 0 0 0
207 765 1 1 6.316956375055617 8.26755987271317 4.340327437822915 1 -1 1
179 490 3 -0.65 13.224780933701558 11.533840835709896 4.781360970721574 0 -1 0
535 1268 4 0 6.286199433797919 12.288978083377227 16.078642185029313 0 0 0
183 594 3 -0.65 6.680583994902665 15.017106446064586 5.107860536879647 2 -1 1
123 234 2 0.95 -0.10972018911484409 8.719445585897605 0.5984330147643836 1 -1 0
149 40 3 -0.65 5.283394450423943 12.462874729215605 11.524409360144697 0 -1 0
434 890 3 -0.65 10.558429736775992 14.521090474504959 4.889534591111022 0 0 1
881 446 2 0.95 8.218817108087595 18.068225594623705 2.1651618098652854 0 0 0
640 530 2 0.95 11.101788263424899 16.271582622359276 13.735719618389627 1 1 0
224 114 3 -0.65 13.90860691068374 17.98868456135857 6.068391590134101 0 0 1
598 901 1 1 7.602184791836221 14.212333183124814 1.4745674529187534 1 0 1
1086 1112 2 0.95 -2.5882394848047774 4.599103861319951 4.586257586934221 0 1 1
609 473 1 1 8.460951422960957 16.59148498242596 5.084951630060539 0 1 1
192 776 3 -0.65 13.169538833180608 7.017129217110619 4.3067743608944795 1 0 1
184 530 3 -0.65 10.658788289477663 15.128630504818668 13.418218068202208 1 1 0
1191 910 2 0.95 13.622840516595375 13.49572086127471 10.898679613859237 0 -1 1
817 890 2 0.95 9.855430993643957 13.710340316408617 4.201683407657873 0 0 1
137 844 3 -0.65 6.560959908940259 9.378348999024293 8.882938523741872 1 0 0
152 40 2 0.95 6.540192331661101 12.507325754033868 11.47626277179026 0 -1 0
150 40 3 -0.65 7.207998962704035 11.420309386609235 11.35098057359248 0 -1 0
49 1216 4 0 7.066798421299758 8.326182810073275 14.72144945730041 0 0 0
175 1265 4 0 6.794732355643999 9.646003572805434 15.143997486312212 0 0 0
412 1315 4 0 1.9493840623464211 15.274463351998682 16.517087815124246 0 0 0
685 530 3 -0.65 12.182257810080806 16.370270740598215 14.368069565099873 1 1 0
126 641 1 1 9.025649358524095 10.142787289293645 10.539053746265791 1 0 1
218 760 3 -0.65 14.0694324900325 9.288431448660507 9.884517408123738 -1 1 1
586 530 3 -0.65 10.455744993303632 17.323480958704167 13.384147912870317 1 1 0
615 675 1 1 11.233460536199376 15.669398138552372 2.874550797732774 0 0 1
550 406 3 -0.65 6.131572483740958 17.698952671127554 13.023088059639527 0 0 0
241 702 3 -0.65 4.321868817511302 16.7129716822759 8.399097004117229 2 0 1
231 61 1 1 11.077982569798953 10.866346958724106 2.9845822725967563 0 1 0
1107 308 3 -0.65 -1.1711766725049884 5.9845715096420875 0.6535764573871106 0 1 -1
222 114 3 -0.65 13.213826917853025 16.61894075288627 7.646072735871783 0 0 1
125 590 2 0.95 11.706985212105682 9.580738159161223 11.7835468715876 -1 -1 0
1239 534 3 -0.65 -2.9560864396263122 16.073087701921825 5.916048498570077 1 0 0
106 1220 4 0 9.440032504025076 8.723373624221102 15.087530465186484 0 0 0
215 1074 3 -0.65 9.646225407691624 13.222627090665918 9.86943114025584 0 0 0
260 590 3 -0.65 12.55930334185355 9.868080844318813 12.648558509378772 -1 -1 0
256 380 3 -0.65 10.042403945203413 9.131166581483775 6.098917929777415 1 1 -1
259 590 3 -0.65 11.57766083812674 8.39528919358059 11.397474490179196 -1 -1 0
462 1278 4 0 12.660614846078182 11.104187761066129 16.65971332378892 0 0 0
155 653 1 1 9.72276093041801 13.800398792901504 12.059634085805563 0 0 1
252 1151 1 1 12.861083674722677 10.934961198670127 8.848619497053908 0 1 0
257 380 3 -0.65 10.225822641691535 7.651777175592908 7.688035016717603 1 1 -1
830 890 3 -0.65 9.891411101426419 12.472858615674463 4.484243315665547 0 0 1
243 158 3 -0.65 7.4149107118593225 10.543736331908775 3.964905457486298 -1 0 0
247 702 3 -0.65 4.989916667858413 15.502295815224718 10.08673035567233 2 0 1
248 158 3 -0.65 7.023645814991061 11.82864691167887 2.200218109747223 -1 0 0
542 1270 4 0 7.874682871721512 10.536399637309314 15.503592350271555 0 0 0
238 457 1 1 6.307026362150949 14.78581580455998 8.120441822616025 1 0 0
246 702 2 0.95 4.468520248737566 16.557032796085554 9.65144464414101 2 0 1
537 1271 4 0 7.640052072590948 11.89599242198641 16.050017461186453 0 0 0
1085 1112 3 -0.65 -2.913565441881962 4.6420363974753425 5.78620437778704 0 1 1
194 1074 3 -0.65 10.446963594881488 13.980811260596578 7.978363671067215 0 0 0
1589 1066 3 -0.65 -3.224234872316267 18.150795238330197 0.2688886310277797 0 0 1
107 1219 4 0 8.41638468561293 7.91190576004416 14.741138614358006 0 0 0
132 844 3 -0.65 6.895630364892397 8.268867731911335 7.037155425177167 1 0 0
153 40 3 -0.65 7.175143711429281 13.595317482172616 11.493264044988212 0 -1 0
357 1274 4 0 10.260662701333409 10.868276050946776 15.912446234663303 0 0 0
244 158 2 0.95 7.739881624217782 10.967974463056818 2.8027476892089793 -1 0 0
249 702 3 -0.65 4.064581962747642 17.457511190688628 10.448056853596714 2 0 1
1183 910 3 -0.65 13.60099049488813 12.229825496193369 10.843836976330678 0 -1 1
167 590 3 -0.65 10.952053492575155 10.494791455940286 11.30947991267159 -1 -1 0
251 683 1 1 12.100656594217652 14.660279374637254 6.750130754444435 1 -1 1
338 1269 4 0 9.176432914264138 10.04209732518352 15.482159031719027 0 0 0
170 490 3 -0.65 13.526243180608633 10.426365476050519 6.655888485467194 0 -1 0
195 30 3 -0.65 4.50344984809555 12.476681570462922 7.304304542635801 0 1 1
424 890 3 -0.65 9.12937633961708 14.107825568899028 3.2433150314036934 0 0 1
177 490 3 -0.65 13.267482635795433 12.611632345883189 6.6939605569910405 0 -1 0
345 1227 4 0 13.111662464007162 8.309478093800154 16.031133938926246 0 0 0
465 1273 4 0 11.592207620283965 10.287302422484897 16.107528045700544 0 0 0
343 1224 4 0 11.859344914083906 8.979919231408834 15.64435536595053 0 0 0
253 380 2 0.95 10.052736085923142 8.851712973215015 7.32982270384753 1 1 -1
543 1223 4 0 10.755377221664517 8.151320484166444 15.24906091848031 0 0 0
258 1075 1 1 8.395465110266269 11.10378985853652 5.846766900461139 0 0 1
262 158 3 -0.65 8.772603611602767 10.469916247962418 2.2357941787804916 -1 0 0
209 868 3 -0.65 9.261824470849247 7.22297196160512 0.2892041474216366 1 1 1
242 17 1 1 8.97850027836184 18.424457974484103 12.400426993349376 0 0 0
75 868 2 0.95 8.49070228466759 8.209464780436898 0.04316053550702037 1 1 1
458 1277 4 0 13.93262062925621 10.5258032956342 16.79529789035722 0 0 0
265 304 2 0.95 2.6172980721983814 6.7653278384042945 24.283437611173373 0 0 0
289 179 1 1 3.311183051612325 7.398404303531618 26.975475661515773 1 1 -1
1112 308 2 0.95 -0.6858816688148351 6.214106460676889 33.13221438217784 0 1 -2
524 1377 4 0 10.006768062505742 18.29027556208675 18.713650327759762 0 0 0
1095 308 3 -0.65 0.5003544168871742 5.812753521216957 32.85321460715849 0 1 -2
284 304 3 -0.65 2.4445619051361023 5.498963859656983 24.48369051699102 0 0 0
15 952 2 0.95 3.3987791605686613 7.764307986838616 30.189236265416195 0 1 0
287 304 3 -0.65 3.4703571486069085 7.1828139656339465 23.471266546321818 0 0 0
11 952 3 -0.65 4.6493384165761436 7.553750529217344 30.065984293114287 0 1 0
278 304 3 -0.65 1.880539647239218 7.596552411428088 24.887523076968755 0 0 0
22 952 3 -0.65 2.9360389411458994 8.14347594200274 31.292235510732898 0 1 0
374 1366 4 0 1.4917885189303284 17.711136998069858 17.80916268218975 0 0 0
530 1088 3 -0.65 -1.5749763913245225 13.690514556880906 33.31637893995188 1 1 -1
313 407 1 1 4.748219528026828 4.7545680357890046 24.145684985827764 1 1 -1
270 648 3 -0.65 6.866111486374838 6.875292447276675 26.46051728125174 0 1 0
26 952 3 -0.65 2.629073216426804 7.5759831394475725 29.198736890120518 0 1 0
271 648 2 0.95 6.354000593619716 6.860024355422876 25.290994030857714 0 1 0
1087 308 3 -0.65 -1.3465534818530953 6.876047270375292 32.265324630455325 0 1 -2
266 818 2 0.95 7.5847888555959795 5.236304623407098 22.24682801204787 1 0 -1
288 818 3 -0.65 6.9594894237275655 4.3078383119808725 22.858384664386747 1 0 -1
274 523 1 1 8.845857821150421 2.8465674790977906 18.162427007102597 2 0 0
269 818 3 -0.65 8.844706850354674 5.184319268857195 22.132343556537077 1 0 -1
279 942 2 0.95 8.441564614130666 5.584413943834765 17.938966711414757 1 1 0
317 2 3 -0.65 10.161134943755965 2.211638097492015 22.33863781799074 -2 1 0
316 2 2 0.95 9.458065578627266 1.881144327752839 21.318313690213362 -2 1 0
349 2 3 -0.65 9.353538163463643 0.6562909046790928 21.009090879819404 -2 1 0
67 926 3 -0.65 9.65806786744235 5.913385266513902 30.053861616841935 0 1 -1
311 2 3 -0.65 8.904663745315615 2.768116332843982 20.619015875445335 -2 1 0
308 968 3 -0.65 7.4507152146709785 4.502781936886286 27.843960726981212 -1 0 0
276 968 3 -0.65 5.755445684768453 4.548347485132183 26.42529791026692 -1 0 0
295 968 2 0.95 6.994881640330514 4.400466006485368 26.641345352112758 -1 0 0
267 968 3 -0.65 7.775295636176745 4.104643918103408 25.70257751542021 -1 0 0
296 973 1 1 10.582342381350124 4.8396259134066115 20.546577733562568 1 0 -1
312 200 3 -0.65 11.431413552239537 2.2929383661748814 24.40784255024765 0 1 0
314 200 2 0.95 11.713459222723355 2.752950936320984 25.553072186522407 0 1 0
319 126 3 -0.65 13.202083248445694 2.9107021918924914 19.531682097427716 2 0 -1
331 126 2 0.95 12.055307701649104 2.352591016999707 19.524077464464956 2 0 -1
1324 985 1 1 9.447938578862559 3.397278652140288 24.155472379656587 2 0 -1
109 213 1 1 9.651887993157489 4.706937519575527 27.96953642824199 -1 1 0
1262 596 3 -0.65 12.041677485464135 -1.3366790119868914 22.694680142181202 -2 1 -1
57 926 2 0.95 9.040286973885397 5.872434259586808 31.145065833994177 0 1 -1
68 926 3 -0.65 7.895968293126885 6.419397773271935 31.255838250515687 0 1 -1
73 926 3 -0.65 9.569432219153365 5.335384764570515 32.16632178598735 0 1 -1
100 257 1 1 11.67388061215002 4.901878429438181 31.56460752170547 0 1 -1
62 105 1 1 5.651516913362569 7.495893047943367 32.301635001172365 1 0 0
264 249 1 1 9.099986682989215 -1.3424249360492346 20.353315789783025 2 0 -1
420 210 3 -0.65 13.672481608825098 6.001609378878903 23.202962059156523 0 1 0
448 136 3 -0.65 10.8819820999091 6.572509292081606 19.267911404805332 1 -1 0
292 818 3 -0.65 6.941717224105258 6.199775738545707 21.72165458103577 1 0 -1
1379 1201 4 0 -2.8393375367672724 4.768808301526877 19.781729258673 1 0 0
302 953 1 1 6.768962620835654 6.717372297352579 28.811609599380176 0 1 0
837 88 2 0.95 9.093899347855341 18.41968670003754 29.41928529771895 1 0 -1
285 942 3 -0.65 9.572227983003089 5.025495531030439 18.092271844080965 1 1 0
332 210 2 0.95 12.70288953557073 5.729883659479784 22.44439196885822 0 1 0
834 88 3 -0.65 8.44516096159337 18.314621194400242 28.332539010150754 1 0 -1
329 210 3 -0.65 11.546989271435137 5.5164948276888595 22.95317500290444 0 1 0
322 210 3 -0.65 12.849694263011113 5.696868258358001 21.197854184605244 0 1 0
1263 596 3 -0.65 10.393478161474809 -2.2630225426386663 21.616331518306758 -2 1 -1
1332 596 3 -0.65 11.27359530905803 -3.3221198971518286 23.32913723509384 -2 1 -1
1282 596 2 0.95 11.24216661589721 -2.3206732650754467 22.551535213480946 -2 1 -1
103 312 3 -0.65 13.635824905692694 6.795244990790439 27.930020803852138 0 1 0
539 312 3 -0.65 12.187611072248718 6.875540238978781 29.566611244704568 0 1 0
84 624 3 -0.65 12.427367204164918 6.911660724814712 32.10798451227396 0 1 0
104 312 2 0.95 12.664492964321608 6.2778946865685334 28.55367160812894 0 1 0
282 942 3 -0.65 8.390612910184801 6.796338613877941 17.577165639720402 1 1 0
330 126 3 -0.65 11.918296932844596 1.19347475574575 20.02700200566312 2 0 -1
326 126 3 -0.65 11.059832914229895 2.9574954241582185 18.992632699315386 2 0 -1
318 200 3 -0.65 11.006410993376292 3.692900854865633 26.025413918218387 0 1 0
71 312 3 -0.65 12.163521037517487 5.18219271079969 28.167206944294783 0 1 0
1278 29 1 1 12.041957449044109 1.0582344400280226 22.412387477885936 0 -1 1
1072 174 3 -0.65 12.962538936618916 3.3905732892599563 30.979628574203236 -2 1 -1
350 200 3 -0.65 12.717536130811421 2.313007107330215 26.177390012029 0 1 0
411 1369 4 0 5.2656063136322135 17.712658736938444 17.67465576325737 0 0 0
277 1118 3 -0.65 -1.4894689131566803 8.768033059400759 26.613113963676557 0 1 -1
1354 38 2 0.95 -3.130259253147795 9.379327069862498 31.939547276827767 1 0 -1
490 650 3 -0.65 10.369006050010992 13.241740100326563 20.47744029013204 0 0 0
394 1088 2 0.95 -2.09841000907386 14.821734430712288 33.086405672967814 1 1 -1
7 14 3 -0.65 5.653391946018372 5.1266422562569645 33.407786318964234 0 0 -1
1565 516 3 -0.65 -2.3551971851845326 13.87192934894273 25.645217948465145 1 0 0
379 538 2 0.95 3.1722334330157516 17.11215914781118 25.52755551317882 -1 1 -1
293 1118 3 -0.65 -1.792063295487152 10.650032652852076 27.691341831856416 0 1 -1
466 954 3 -0.65 13.6057089190323 15.856980534546798 31.307352385266505 1 0 0
380 538 3 -0.65 2.1816918473983056 16.347800204107827 25.319645576034926 -1 1 -1
275 341 1 1 5.588765282106904 7.909895699616216 22.868910946824563 0 1 -1
235 108 3 -0.65 12.221059901137151 11.001842184725879 32.50392368838655 0 0 -1
404 538 3 -0.65 4.1952736968579725 16.671011909913346 26.119256452510072 -1 1 -1
385 936 3 -0.65 -0.8673767233896473 16.453164528216572 30.015153357270822 0 0 0
290 1118 2 0.95 -1.148732441867954 9.54582376095358 27.554909326121496 0 1 -1
291 1118 3 -0.65 -0.21852541219542235 9.276130091992865 28.339174039631523 0 1 -1
386 936 3 -0.65 0.22983292156521676 14.715280347155078 29.193185159696295 0 0 0
283 503 1 1 -0.4112747200655697 8.263492056492806 24.844467640924123 1 1 0
1341 225 1 1 -0.40165655933157335 8.322974895795596 30.684751172762994 1 0 -1